----- GAMESS execution script 'rungms' -----
This job is running on host archvm
under operating system Linux at Tue Oct 14 14:08:34 EDT 2014
Available scratch disk space (Kbyte units) at beginning of the job is
Filesystem     1K-blocks     Used Available Use% Mounted on
/dev/vda1       80222524 55157860  20966672  73% /
GAMESS temporary binary files will be written to /scratch
GAMESS supplementary output files will be written to /scratch
Copying input file amo.inp to your run's scratch directory...

 Distributed Data Interface kickoff program.
 Initiating 1 compute processes on 1 nodes to run the following command:
 /home/ben/programming/gamess/gamess-master/gamess.00.x amo 

          ******************************************************
          *         GAMESS VERSION =  1 MAY 2013 (R1)          *
          *             FROM IOWA STATE UNIVERSITY             *
          * M.W.SCHMIDT, K.K.BALDRIDGE, J.A.BOATZ, S.T.ELBERT, *
          *   M.S.GORDON, J.H.JENSEN, S.KOSEKI, N.MATSUNAGA,   *
          *          K.A.NGUYEN, S.J.SU, T.L.WINDUS,           *
          *       TOGETHER WITH M.DUPUIS, J.A.MONTGOMERY       *
          *         J.COMPUT.CHEM.  14, 1347-1363(1993)        *
          **************** 64 BIT INTEL VERSION ****************

  SINCE 1993, STUDENTS AND POSTDOCS WORKING AT IOWA STATE UNIVERSITY
  AND ALSO IN THEIR VARIOUS JOBS AFTER LEAVING ISU HAVE MADE IMPORTANT
  CONTRIBUTIONS TO THE CODE:
     IVANA ADAMOVIC, CHRISTINE AIKENS, YURI ALEXEEV, POOJA ARORA,
     ANDREY ASADCHEV, ROB BELL, PRADIPTA BANDYOPADHYAY, JONATHAN BENTZ,
     BRETT BODE, GALINA CHABAN, WEI CHEN, CHEOL HO CHOI, PAUL DAY,
     ALBERT DEFUSCO, TIM DUDLEY, DMITRI FEDOROV, GRAHAM FLETCHER,
     MARK FREITAG, KURT GLAESEMANN, DAN KEMP, GRANT MERRILL,
     NORIYUKI MINEZAWA, JONATHAN MULLIN, TAKESHI NAGATA,
     SEAN NEDD, HEATHER NETZLOFF, BOSILJKA NJEGIC, RYAN OLSON, MIKE PAK,
     JIM SHOEMAKER, LYUDMILA SLIPCHENKO, SAROM SOK, JIE SONG,
     TETSUYA TAKETSUGU, SIMON WEBB, SOOHAENG YOO, FEDERICO ZAHARIEV

  ADDITIONAL CODE HAS BEEN PROVIDED BY COLLABORATORS IN OTHER GROUPS:
     IOWA STATE UNIVERSITY:
          JOE IVANIC, LAIMUTIS BYTAUTAS, KLAUS RUEDENBERG
     UNIVERSITY OF TOKYO: KIMIHIKO HIRAO, TAKAHITO NAKAJIMA,
          TAKAO TSUNEDA, MUNEAKI KAMIYA, SUSUMU YANAGISAWA,
          KIYOSHI YAGI, MAHITO CHIBA, SEIKEN TOKURA, NAOAKI KAWAKAMI
     UNIVERSITY OF AARHUS: FRANK JENSEN
     UNIVERSITY OF IOWA: VISVALDAS KAIRYS, HUI LI
     NATIONAL INST. OF STANDARDS AND TECHNOLOGY: WALT STEVENS, DAVID GARMER
     UNIVERSITY OF PISA: BENEDETTA MENNUCCI, JACOPO TOMASI
     UNIVERSITY OF MEMPHIS: HENRY KURTZ, PRAKASHAN KORAMBATH
     UNIVERSITY OF ALBERTA: TOBY ZENG, MARIUSZ KLOBUKOWSKI
     UNIVERSITY OF NEW ENGLAND: MARK SPACKMAN
     MIE UNIVERSITY: HIROAKI UMEDA
     MICHIGAN STATE UNIVERSITY:
          KAROL KOWALSKI, MARTA WLOCH, JEFFREY GOUR, JESSE LUTZ,
          WEI LI, PIOTR PIECUCH
     UNIVERSITY OF SILESIA: MONIKA MUSIAL, STANISLAW KUCHARSKI
     FACULTES UNIVERSITAIRES NOTRE-DAME DE LA PAIX:
          OLIVIER QUINET, BENOIT CHAMPAGNE
     UNIVERSITY OF CALIFORNIA - SANTA BARBARA: BERNARD KIRTMAN
     INSTITUTE FOR MOLECULAR SCIENCE:
          KAZUYA ISHIMURA, MICHIO KATOUDA, AND SHIGERU NAGASE
     UNIVERSITY OF NOTRE DAME: DAN CHIPMAN
     KYUSHU UNIVERSITY:
          HARUYUKI NAKANO,
          FENG LONG GU, JACEK KORCHOWIEC, MARCIN MAKOWSKI, AND YURIKO AOKI,
          HIROTOSHI MORI AND EISAKU MIYOSHI
     PENNSYLVANIA STATE UNIVERSITY:
          TZVETELIN IORDANOV, CHET SWALINA, JONATHAN SKONE,
          SHARON HAMMES-SCHIFFER
     WASEDA UNIVERSITY:
          MASATO KOBAYASHI, TOMOKO AKAMA, TSUGUKI TOUMA,
          TAKESHI YOSHIKAWA, YASUHIRO IKABATA, HIROMI NAKAI
     NANJING UNIVERSITY: SHUHUA LI
     UNIVERSITY OF NEBRASKA:
          PEIFENG SU, DEJUN SI, NANDUN THELLAMUREGE, YALI WANG, HUI LI
     UNIVERSITY OF ZURICH:
          ROBERTO PEVERATI, KIM BALDRIDGE
     N. COPERNICUS UNIVERSITY AND JACKSON STATE UNIVERSITY:
          MARIA BARYSZ

 EXECUTION OF GAMESS BEGUN Tue Oct 14 14:08:38 2014

            ECHO OF THE FIRST FEW INPUT CARDS -
 INPUT CARD> $CONTRL ispher=1 scftyp=rhf nprint=3 $end                                      
 INPUT CARD> $basis gbasis=accd $end                                                        
 INPUT CARD> $scf dirscf=.t. $end                                                           
 INPUT CARD> $system memory=10000000 $end                                                   
 INPUT CARD> $DATA                                                                          
 INPUT CARD>                                                                                
 INPUT CARD> C1                                                                             
 INPUT CARD> N           7.0   1.8753260893   1.2278971082   0.3595137322                   
 INPUT CARD> H           1.0   1.6237440122   1.5930738032  -0.5233893479                   
 INPUT CARD> H           1.0   2.8687723240   1.3533497046   0.4293906575                   
 INPUT CARD> H           1.0   1.5129248729   1.9281634681   0.9796664950                   
 INPUT CARD> $END                                                                           
   10000000 WORDS OF MEMORY AVAILABLE

     BASIS OPTIONS
     -------------
     GBASIS=ACCD         IGAUSS=       0      POLAR=NONE    
     NDFUNC=       0     NFFUNC=       0     DIFFSP=       F
     NPFUNC=       0      DIFFS=       F     BASNAM=        


     RUN TITLE
     ---------
                                                                                 

 THE POINT GROUP OF THE MOLECULE IS C1      
 THE ORDER OF THE PRINCIPAL AXIS IS     0

 ATOM      ATOMIC                      COORDINATES (BOHR)
           CHARGE         X                   Y                   Z
 N           7.0     3.5438524464        2.3203890756        0.6793824427
 H           1.0     3.0684312573        3.0104729663       -0.9890624524
 H           1.0     5.4211936135        2.5574601073        0.8114306844
 H           1.0     2.8590134498        3.6437006142        1.8513012349

          INTERNUCLEAR DISTANCES (ANGS.)
          ------------------------------

                1 N          2 H          3 H          4 H     

   1 N       0.0000000    0.9880108 *  1.0037712 *  1.0031436 *
   2 H       0.9880108 *  0.0000000    1.5859864 *  1.5439374 *
   3 H       1.0037712 *  1.5859864 *  0.0000000    1.5721122 *
   4 H       1.0031436 *  1.5439374 *  1.5721122 *  0.0000000  

  * ... LESS THAN  3.000


     ATOMIC BASIS SET
     ----------------
 THE CONTRACTED PRIMITIVE FUNCTIONS HAVE BEEN UNNORMALIZED
 THE CONTRACTED BASIS FUNCTIONS ARE NOW NORMALIZED TO UNITY

  SHELL TYPE  PRIMITIVE        EXPONENT          CONTRACTION COEFFICIENT(S)

 N         

      1   S       1          9046.0000000    0.000699617413
      1   S       2          1357.0000000    0.005386054630
      1   S       3           309.3000000    0.027391021189
      1   S       4            87.7300000    0.103150591982
      1   S       5            28.5600000    0.278570663317
      1   S       6            10.2100000    0.448294849454
      1   S       7             3.8380000    0.278085928395
      1   S       8             0.7466000    0.015431561233

      2   S       9          9046.0000000   -0.000304990096
      2   S      10          1357.0000000   -0.002408026379
      2   S      11           309.3000000   -0.011944448725
      2   S      12            87.7300000   -0.048925992909
      2   S      13            28.5600000   -0.134472724725
      2   S      14            10.2100000   -0.315112577700
      2   S      15             3.8380000   -0.242857832550
      2   S      16             0.7466000    1.094382206854

      3   S      17             0.2248000    1.000000000000

      4   P      18            13.5500000    0.058905676772
      4   P      19             2.9170000    0.320461106714
      4   P      20             0.7973000    0.753042061792

      5   P      21             0.2185000    1.000000000000

      6   D      22             0.8170000    1.000000000000

      7   S      23             0.0612400    1.000000000000

      8   P      24             0.0561100    1.000000000000

      9   D      25             0.2300000    1.000000000000

 H         

     10   S      26            13.0100000    0.033498726390
     10   S      27             1.9620000    0.234800801174
     10   S      28             0.4446000    0.813682957883

     11   S      29             0.1220000    1.000000000000

     12   P      30             0.7270000    1.000000000000

     13   S      31             0.0297400    1.000000000000

     14   P      32             0.1410000    1.000000000000

 H         

     15   S      33            13.0100000    0.033498726390
     15   S      34             1.9620000    0.234800801174
     15   S      35             0.4446000    0.813682957883

     16   S      36             0.1220000    1.000000000000

     17   P      37             0.7270000    1.000000000000

     18   S      38             0.0297400    1.000000000000

     19   P      39             0.1410000    1.000000000000

 H         

     20   S      40            13.0100000    0.033498726390
     20   S      41             1.9620000    0.234800801174
     20   S      42             0.4446000    0.813682957883

     21   S      43             0.1220000    1.000000000000

     22   P      44             0.7270000    1.000000000000

     23   S      45             0.0297400    1.000000000000

     24   P      46             0.1410000    1.000000000000

 TOTAL NUMBER OF BASIS SET SHELLS             =   24
 NUMBER OF CARTESIAN GAUSSIAN BASIS FUNCTIONS =   52
 NOTE: THIS RUN WILL RESTRICT THE MO VARIATION SPACE TO SPHERICAL HARMONICS.
 THE NUMBER OF ORBITALS KEPT IN THE VARIATIONAL SPACE WILL BE PRINTED LATER.
 NUMBER OF ELECTRONS                          =   10
 CHARGE OF MOLECULE                           =    0
 SPIN MULTIPLICITY                            =    1
 NUMBER OF OCCUPIED ORBITALS (ALPHA)          =    5
 NUMBER OF OCCUPIED ORBITALS (BETA )          =    5
 TOTAL NUMBER OF ATOMS                        =    4
 THE NUCLEAR REPULSION ENERGY IS       12.1451530544

     $CONTRL OPTIONS
     ---------------
 SCFTYP=RHF          RUNTYP=ENERGY       EXETYP=RUN     
 MPLEVL=       0     CITYP =NONE         CCTYP =NONE         VBTYP =NONE    
 DFTTYP=NONE         TDDFT =NONE    
 MULT  =       1     ICHARG=       0     NZVAR =       0     COORD =UNIQUE  
 PP    =NONE         RELWFN=NONE         LOCAL =NONE         NUMGRD=       F
 ISPHER=       1     NOSYM =       0     MAXIT =      30     UNITS =ANGS    
 PLTORB=       F     MOLPLT=       F     AIMPAC=       F     FRIEND=        
 NPRINT=       3     IREST =       0     GEOM  =INPUT   
 NORMF =       0     NORMP =       0     ITOL  =      20     ICUT  =       9
 INTTYP=BEST         GRDTYP=BEST         QMTTOL= 1.0E-06

     $SYSTEM OPTIONS
     ---------------
  REPLICATED MEMORY=    10000000 WORDS (ON EVERY NODE).
 DISTRIBUTED MEMDDI=           0 MILLION WORDS IN AGGREGATE,
 MEMDDI DISTRIBUTED OVER   1 PROCESSORS IS           0 WORDS/PROCESSOR.
 TOTAL MEMORY REQUESTED ON EACH PROCESSOR=    10000000 WORDS.
 TIMLIM=      525600.00 MINUTES, OR     365.0 DAYS.
 PARALL= F  BALTYP=  DLB     KDIAG=    0  COREFL= F
 MXSEQ2=     300 MXSEQ3=     150

          ----------------
          PROPERTIES INPUT
          ----------------

     MOMENTS            FIELD           POTENTIAL          DENSITY
 IEMOM =       1   IEFLD =       0   IEPOT =       0   IEDEN =       0
 WHERE =COMASS     WHERE =NUCLEI     WHERE =NUCLEI     WHERE =NUCLEI  
 OUTPUT=BOTH       OUTPUT=BOTH       OUTPUT=BOTH       OUTPUT=BOTH    
 IEMINT=       0   IEFINT=       0                     IEDINT=       0
                                                       MORB  =       0
          EXTRAPOLATION IN EFFECT
          SOSCF IN EFFECT
 ORBITAL PRINTING OPTION: NPREO=     1    52     2     1

     -------------------------------
     INTEGRAL TRANSFORMATION OPTIONS
     -------------------------------
     NWORD  =            0
     CUTOFF = 1.0E-09     MPTRAN =       0
     DIRTRF =       T     AOINTS =DUP     

          ----------------------
          INTEGRAL INPUT OPTIONS
          ----------------------
 NOPK  =       1 NORDER=       0 SCHWRZ=       T

     ------------------------------------------
     THE POINT GROUP IS C1 , NAXIS= 0, ORDER= 1
     ------------------------------------------

 -- VARIATIONAL SPACE WILL BE RESTRICTED TO PURE SPHERICAL HARMONICS ONLY --
 AFTER EXCLUDING CONTAMINANT COMBINATIONS FROM THE CARTESIAN GAUSSIAN BASIS
 SET, THE NUMBER OF SPHERICAL HARMONICS KEPT IN THE VARIATION SPACE IS   50

     DIMENSIONS OF THE SYMMETRY SUBSPACES ARE
 A   =   50

 ..... DONE SETTING UP THE RUN .....
 STEP CPU TIME =     0.02 TOTAL CPU TIME =        0.0 (    0.0 MIN)
 TOTAL WALL CLOCK TIME=        0.3 SECONDS, CPU UTILIZATION IS   5.88%

          ********************
          1 ELECTRON INTEGRALS
          ********************
 OVERLAP MATRIX

                      1          2          3          4          5

    1  N  1  S    1.000000
    2  N  1  S   -0.216579   1.000000
    3  N  1  S    0.192336   0.711714   1.000000
    4  N  1  X    0.000000  -0.000000   0.000000   1.000000
    5  N  1  Y    0.000000  -0.000000   0.000000   0.000000   1.000000
    6  N  1  Z    0.000000  -0.000000   0.000000   0.000000   0.000000
    7  N  1  X    0.000000  -0.000000  -0.000000   0.522157   0.000000
    8  N  1  Y    0.000000  -0.000000   0.000000   0.000000   0.522157
    9  N  1  Z    0.000000  -0.000000   0.000000   0.000000   0.000000
   10  N  1 XX    0.063018   0.615544   0.675755  -0.000000   0.000000
   11  N  1 YY    0.063018   0.615544   0.675755  -0.000000   0.000000
   12  N  1 ZZ    0.063018   0.615544   0.675755  -0.000000   0.000000
   13  N  1 XY    0.000000   0.000000   0.000000   0.000000  -0.000000
   14  N  1 XZ    0.000000   0.000000   0.000000  -0.000000   0.000000
   15  N  1 YZ    0.000000   0.000000   0.000000   0.000000  -0.000000
   16  N  1  S    0.076727   0.367935   0.743068   0.000000   0.000000
   17  N  1  X    0.000000  -0.000000   0.000000   0.142993   0.000000
   18  N  1  Y   -0.000000   0.000000   0.000000   0.000000   0.142993
   19  N  1  Z    0.000000  -0.000000   0.000000   0.000000   0.000000
   20  N  1 XX    0.010998   0.226314   0.583894  -0.000000  -0.000000
   21  N  1 YY    0.010998   0.226314   0.583894  -0.000000  -0.000000
   22  N  1 ZZ    0.010998   0.226314   0.583894  -0.000000  -0.000000
   23  N  1 XY    0.000000  -0.000000   0.000000  -0.000000  -0.000000
   24  N  1 XZ    0.000000  -0.000000   0.000000   0.000000   0.000000
   25  N  1 YZ    0.000000  -0.000000   0.000000   0.000000   0.000000
   26  H  2  S    0.060747   0.312320   0.500932  -0.087082   0.126402
   27  H  2  S    0.083273   0.381549   0.708466  -0.036310   0.052704
   28  H  2  X    0.030849   0.102462   0.082395   0.183422   0.059281
   29  H  2  Y   -0.044778  -0.148725  -0.119598   0.059281   0.138215
   30  H  2  Z    0.108261   0.359579   0.289157  -0.143325   0.208039
   31  H  2  S    0.040758   0.207229   0.469894  -0.005163   0.007494
   32  H  2  X    0.029911   0.114747   0.155786   0.224625   0.018912
   33  H  2  Y   -0.043416  -0.166558  -0.226127   0.018912   0.210203
   34  H  2  Z    0.104970   0.402695   0.546716  -0.045725   0.066370
   35  H  3  S    0.057960   0.302426   0.492284   0.330774   0.041770
   36  H  3  S    0.082174   0.377183   0.702213   0.141671   0.017890
   37  H  3  X   -0.113461  -0.390767  -0.319158  -0.393657  -0.076781
   38  H  3  Y   -0.014328  -0.049346  -0.040303  -0.076781   0.204670
   39  H  3  Z   -0.007981  -0.027486  -0.022449  -0.042767  -0.005401
   40  H  3  S    0.040623   0.206569   0.468513   0.020321   0.002566
   41  H  3  X   -0.116318  -0.447304  -0.609221   0.034028  -0.025309
   42  H  3  Y   -0.014689  -0.056486  -0.076933  -0.025309   0.231249
   43  H  3  Z   -0.008182  -0.031462  -0.042851  -0.014097  -0.001780
   44  H  4  S    0.058069   0.302816   0.492628  -0.120851   0.233520
   45  H  4  S    0.082218   0.377358   0.702463  -0.051705   0.099910
   46  H  4  X    0.041508   0.142749   0.116516   0.133692   0.156635
   47  H  4  Y   -0.080205  -0.275832  -0.225144   0.156635  -0.087912
   48  H  4  Z   -0.071029  -0.244276  -0.199386   0.138716  -0.268040
   49  H  4  S    0.040629   0.206596   0.468568  -0.007414   0.014326
   50  H  4  X    0.042458   0.163257   0.222326   0.207888   0.051563
   51  H  4  Y   -0.082042  -0.315462  -0.429599   0.051563   0.134938
   52  H  4  Z   -0.072656  -0.279372  -0.380451   0.045664  -0.088236

                      6          7          8          9         10

    6  N  1  Z    1.000000
    7  N  1  X    0.000000   1.000000
    8  N  1  Y    0.000000   0.000000   1.000000
    9  N  1  Z    0.522157   0.000000   0.000000   1.000000
   10  N  1 XX   -0.000000   0.000000   0.000000   0.000000   1.000000
   11  N  1 YY   -0.000000   0.000000   0.000000   0.000000   0.333333
   12  N  1 ZZ   -0.000000   0.000000   0.000000   0.000000   0.333333
   13  N  1 XY    0.000000   0.000000   0.000000   0.000000   0.000000
   14  N  1 XZ   -0.000000   0.000000   0.000000   0.000000   0.000000
   15  N  1 YZ    0.000000   0.000000   0.000000   0.000000   0.000000
   16  N  1  S    0.000000  -0.000000   0.000000   0.000000   0.390523
   17  N  1  X    0.000000   0.583981   0.000000   0.000000   0.000000
   18  N  1  Y    0.000000   0.000000   0.583981   0.000000   0.000000
   19  N  1  Z    0.142993   0.000000   0.000000   0.583981   0.000000
   20  N  1 XX    0.000000   0.000000   0.000000   0.000000   0.516659
   21  N  1 YY    0.000000   0.000000   0.000000   0.000000   0.172220
   22  N  1 ZZ    0.000000   0.000000   0.000000   0.000000   0.172220
   23  N  1 XY    0.000000   0.000000   0.000000   0.000000   0.000000
   24  N  1 XZ   -0.000000   0.000000   0.000000   0.000000   0.000000
   25  N  1 YZ   -0.000000   0.000000   0.000000   0.000000   0.000000
   26  H  2  S   -0.305607  -0.155539   0.225768  -0.545849   0.238456
   27  H  2  S   -0.127425  -0.113837   0.165236  -0.399499   0.385396
   28  H  2  X   -0.143325   0.335739   0.040053  -0.096839  -0.042740
   29  H  2  Y    0.208039   0.040053   0.305194   0.140564  -0.114631
   30  H  2  Z   -0.278723  -0.096839   0.140564   0.023486   0.277149
   31  H  2  S   -0.018118  -0.025439   0.036926  -0.089277   0.225318
   32  H  2  X   -0.045725   0.671840   0.039301  -0.095020   0.078116
   33  H  2  Y    0.066370   0.039301   0.641869   0.137924  -0.172310
   34  H  2  Z    0.077188  -0.095020   0.137924   0.365451   0.416601
   35  H  3  S    0.023266   0.603682   0.076233   0.042462   0.522106
   36  H  3  S    0.009965   0.445590   0.056269   0.031342   0.420376
   37  H  3  X   -0.042767  -0.065692  -0.053321  -0.029700  -0.422448
   38  H  3  Y   -0.005401  -0.053321   0.349821  -0.003751  -0.111478
   39  H  3  Z    0.211357  -0.029700  -0.003751   0.354465  -0.062093
   40  H  3  S    0.001429   0.100160   0.012648   0.007045   0.226141
   41  H  3  X   -0.014097   0.274075  -0.052805  -0.029412  -0.367061
   42  H  3  Y   -0.001780  -0.052805   0.685566  -0.003714  -0.066324
   43  H  3  Z    0.233453  -0.029412  -0.003714   0.690165  -0.036942
   44  H  4  S    0.206805  -0.220371   0.425822   0.377106   0.252242
   45  H  4  S    0.088480  -0.162605   0.314201   0.278255   0.383933
   46  H  4  X    0.138716   0.300591   0.108657   0.096226  -0.043346
   47  H  4  Y   -0.268040   0.108657   0.146866  -0.185938  -0.241287
   48  H  4  Z   -0.022621   0.096226  -0.185938   0.192158  -0.213683
   49  H  4  S    0.012687  -0.036542   0.070610   0.062532   0.224737
   50  H  4  X    0.045664   0.636834   0.107565   0.095259   0.112766
   51  H  4  Y   -0.088236   0.107565   0.484653  -0.184069  -0.329435
   52  H  4  Z    0.156432   0.095259  -0.184069   0.529490  -0.291746

                     11         12         13         14         15

   11  N  1 YY    1.000000
   12  N  1 ZZ    0.333333   1.000000
   13  N  1 XY    0.000000   0.000000   1.000000
   14  N  1 XZ    0.000000   0.000000   0.000000   1.000000
   15  N  1 YZ    0.000000   0.000000   0.000000   0.000000   1.000000
   16  N  1  S    0.390523   0.390523   0.000000   0.000000   0.000000
   17  N  1  X    0.000000   0.000000   0.000000   0.000000   0.000000
   18  N  1  Y    0.000000   0.000000   0.000000   0.000000   0.000000
   19  N  1  Z    0.000000   0.000000   0.000000   0.000000   0.000000
   20  N  1 XX    0.172220   0.172220   0.000000   0.000000   0.000000
   21  N  1 YY    0.516659   0.172220   0.000000   0.000000   0.000000
   22  N  1 ZZ    0.172220   0.516659   0.000000   0.000000   0.000000
   23  N  1 XY    0.000000   0.000000   0.516659   0.000000   0.000000
   24  N  1 XZ    0.000000   0.000000   0.000000   0.516659   0.000000
   25  N  1 YZ    0.000000   0.000000   0.000000   0.000000   0.516659
   26  H  2  S    0.261530   0.474338  -0.052407   0.126706  -0.183917
   27  H  2  S    0.388431   0.416423  -0.006893   0.016666  -0.024192
   28  H  2  X    0.090688   0.198728   0.126394  -0.305587  -0.093373
   29  H  2  Y    0.045034  -0.288458  -0.066787  -0.093373  -0.234382
   30  H  2  Z    0.318259   0.270277  -0.093373   0.120345  -0.174683
   31  H  2  S    0.225436   0.226521  -0.000267   0.000646  -0.000938
   32  H  2  X    0.119931   0.131195   0.048255  -0.116668  -0.009734
   33  H  2  Y   -0.115160  -0.190432  -0.031129  -0.009734  -0.109244
   34  H  2  Z    0.420887   0.317956  -0.009734  -0.011620   0.016867
   35  H  3  S    0.215381   0.211953   0.068175   0.037974   0.004795
   36  H  3  S    0.378802   0.378337   0.009241   0.005147   0.000650
   37  H  3  X   -0.268614  -0.261749  -0.086167  -0.047995  -0.009602
   38  H  3  Y    0.024211  -0.033054   0.381423  -0.009602   0.026829
   39  H  3  Z   -0.018894   0.013968  -0.009602   0.393313   0.049668
   40  H  3  S    0.224515   0.224496   0.000362   0.000201   0.000025
   41  H  3  X   -0.459256  -0.458519   0.002636   0.001468  -0.001031
   42  H  3  Y   -0.038024  -0.057902   0.135111  -0.001031   0.009503
   43  H  3  Z   -0.032303  -0.021127  -0.001031   0.136388   0.017223
   44  H  4  S    0.365825   0.332360  -0.139054  -0.123146   0.237954
   45  H  4  S    0.399310   0.394780  -0.018825  -0.016672   0.032214
   46  H  4  X    0.207840   0.183395   0.179922   0.159338   0.173820
   47  H  4  Y   -0.076563  -0.354373   0.050594   0.173820  -0.086579
   48  H  4  Z   -0.355663  -0.025973   0.173820   0.008254  -0.015949
   49  H  4  S    0.225339   0.225161  -0.000736  -0.000652   0.001260
   50  H  4  X    0.179388   0.176766   0.085700   0.075895   0.018644
   51  H  4  Y   -0.235093  -0.341564  -0.028937   0.018644   0.049518
   52  H  4  Z   -0.306975  -0.203710   0.018644  -0.033478   0.064690

                     16         17         18         19         20

   16  N  1  S    1.000000
   17  N  1  X   -0.000000   1.000000
   18  N  1  Y   -0.000000   0.000000   1.000000
   19  N  1  Z    0.000000   0.000000   0.000000   1.000000
   20  N  1 XX    0.670945  -0.000000  -0.000000  -0.000000   1.000000
   21  N  1 YY    0.670945  -0.000000  -0.000000  -0.000000   0.333333
   22  N  1 ZZ    0.670945  -0.000000  -0.000000  -0.000000   0.333333
   23  N  1 XY    0.000000  -0.000000  -0.000000  -0.000000   0.000000
   24  N  1 XZ    0.000000  -0.000000  -0.000000  -0.000000   0.000000
   25  N  1 YZ    0.000000  -0.000000  -0.000000  -0.000000   0.000000
   26  H  2  S    0.395078  -0.076851   0.111551  -0.269701   0.209644
   27  H  2  S    0.794938  -0.120831   0.175388  -0.424043   0.540742
   28  H  2  X    0.020264   0.155606   0.005447  -0.013169  -0.117833
   29  H  2  Y   -0.029414   0.005447   0.151453   0.019115  -0.042140
   30  H  2  Z    0.071115  -0.013169   0.019115   0.113144   0.101884
   31  H  2  S    0.847426  -0.067690   0.098253  -0.237551   0.474784
   32  H  2  X    0.082070   0.660556   0.017718  -0.042838  -0.022558
   33  H  2  Y   -0.119126   0.017718   0.647045   0.062181  -0.166139
   34  H  2  Z    0.288016  -0.042838   0.062181   0.522426   0.401682
   35  H  3  S    0.392677   0.301761   0.038106   0.021225   0.616086
   36  H  3  S    0.791313   0.475084   0.059994   0.033416   0.682619
   37  H  3  X   -0.079514   0.100260  -0.007346  -0.004092   0.128536
   38  H  3  Y   -0.010041  -0.007346   0.157503  -0.000517  -0.055583
   39  H  3  Z   -0.005593  -0.004092  -0.000517   0.158143  -0.030960
   40  H  3  S    0.845526   0.266711   0.033680   0.018760   0.484001
   41  H  3  X   -0.322529   0.480258  -0.023928  -0.013328  -0.066265
   42  H  3  Y   -0.040729  -0.023928   0.666721  -0.001683  -0.076026
   43  H  3  Z   -0.022686  -0.013328  -0.001683   0.668805  -0.042346
   44  H  4  S    0.392773  -0.110105   0.212755   0.188415   0.236411
   45  H  4  S    0.791458  -0.173337   0.334938   0.296620   0.546933
   46  H  4  X    0.029013   0.150725   0.014961   0.013250  -0.157762
   47  H  4  Y   -0.056062   0.014961   0.129558  -0.025603  -0.096335
   48  H  4  Z   -0.049649   0.013250  -0.025603   0.135795  -0.085314
   49  H  4  S    0.845602  -0.097303   0.188017   0.166507   0.474222
   50  H  4  X    0.117679   0.644644   0.048732   0.043157  -0.028038
   51  H  4  Y   -0.227390   0.048732   0.575698  -0.083392  -0.323632
   52  H  4  Z   -0.201375   0.043157  -0.083392   0.596012  -0.286607

                     21         22         23         24         25

   21  N  1 YY    1.000000
   22  N  1 ZZ    0.333333   1.000000
   23  N  1 XY    0.000000   0.000000   1.000000
   24  N  1 XZ    0.000000   0.000000   0.000000   1.000000
   25  N  1 YZ    0.000000   0.000000   0.000000   0.000000   1.000000
   26  H  2  S    0.241318   0.533444  -0.071940   0.173933  -0.252467
   27  H  2  S    0.551969   0.655510  -0.025499   0.061649  -0.089485
   28  H  2  X    0.035452   0.094664   0.170036  -0.411103  -0.051173
   29  H  2  Y    0.161719  -0.137407  -0.106023  -0.051173  -0.372078
   30  H  2  Z    0.124415  -0.183196  -0.051173  -0.003465   0.005030
   31  H  2  S    0.475591   0.483041  -0.001835   0.004436  -0.006438
   32  H  2  X    0.117455   0.145092   0.165432  -0.399972  -0.023885
   33  H  2  Y    0.028395  -0.210604  -0.108781  -0.023885  -0.381758
   34  H  2  Z    0.412198   0.028338  -0.023885  -0.060913   0.088416
   35  H  3  S    0.184926   0.180107   0.095833   0.053379   0.006741
   36  H  3  S    0.528379   0.526655   0.034283   0.019095   0.002411
   37  H  3  X   -0.095543  -0.091691  -0.014403  -0.008023  -0.005388
   38  H  3  Y    0.059749  -0.011579   0.482829  -0.005388   0.033961
   39  H  3  Z   -0.006720   0.033551  -0.005388   0.489501   0.061814
   40  H  3  S    0.472837   0.472713   0.002481   0.001382   0.000175
   41  H  3  X   -0.439613  -0.437798   0.022491   0.012527  -0.002539
   42  H  3  Y    0.012144  -0.055285   0.459437  -0.002539   0.032316
   43  H  3  Z   -0.030921   0.006892  -0.002539   0.462582   0.058415
   44  H  4  S    0.395921   0.348924  -0.195281  -0.172940   0.334172
   45  H  4  S    0.603974   0.587168  -0.069833  -0.061844   0.119500
   46  H  4  X    0.096366   0.082662   0.290490   0.257256   0.097439
   47  H  4  Y    0.214971  -0.159728  -0.069775   0.097439   0.119401
   48  H  4  Z   -0.164904   0.213827   0.097439  -0.093510   0.180689
   49  H  4  S    0.478350   0.477134  -0.005053  -0.004475   0.008647
   50  H  4  X    0.189399   0.182943   0.300365   0.266002   0.045909
   51  H  4  Y    0.011835  -0.353500  -0.117490   0.045909   0.201052
   52  H  4  Z   -0.324106   0.021529   0.045909  -0.128672   0.248633

                     26         27         28         29         30

   26  H  2  S    1.000000
   27  H  2  S    0.684860   1.000000
   28  H  2  X   -0.000000   0.000000   1.000000
   29  H  2  Y   -0.000000   0.000000   0.000000   1.000000
   30  H  2  Z   -0.000000   0.000000   0.000000   0.000000   1.000000
   31  H  2  S    0.303730   0.707409   0.000000  -0.000000   0.000000
   32  H  2  X    0.000000  -0.000000   0.467431   0.000000   0.000000
   33  H  2  Y    0.000000  -0.000000   0.000000   0.467431   0.000000
   34  H  2  Z   -0.000000   0.000000   0.000000   0.000000   0.467431
   35  H  3  S    0.100215   0.284548   0.104363  -0.020095   0.079866
   36  H  3  S    0.284548   0.578144   0.132554  -0.025523   0.101440
   37  H  3  X   -0.104363  -0.132554  -0.115504   0.029593  -0.117618
   38  H  3  Y    0.020095   0.025523   0.029593   0.032494   0.022647
   39  H  3  Z   -0.079866  -0.101440  -0.117618   0.022647  -0.051818
   40  H  3  S    0.236164   0.570679   0.029552  -0.005690   0.022616
   41  H  3  X   -0.373537  -0.453693  -0.049748   0.040736  -0.161903
   42  H  3  Y    0.071923   0.087356   0.040736   0.153973   0.031174
   43  H  3  Z   -0.285856  -0.347197  -0.161903   0.031174   0.037917
   44  H  4  S    0.112045   0.297909  -0.010640   0.032173   0.144315
   45  H  4  S    0.297909   0.594959  -0.012392   0.037471   0.168079
   46  H  4  X    0.010640   0.012392   0.043862   0.004368   0.019592
   47  H  4  Y   -0.032173  -0.037471   0.004368   0.032100  -0.059243
   48  H  4  Z   -0.144315  -0.168079   0.019592  -0.059243  -0.220427
   49  H  4  S    0.239293   0.577129  -0.002666   0.008061   0.036159
   50  H  4  X    0.035012   0.041644   0.169279   0.005358   0.024031
   51  H  4  Y   -0.105867  -0.125920   0.005358   0.154851  -0.072665
   52  H  4  Z   -0.474868  -0.564818   0.024031  -0.072665  -0.154889

                     31         32         33         34         35

   31  H  2  S    1.000000
   32  H  2  X    0.000000   1.000000
   33  H  2  Y    0.000000   0.000000   1.000000
   34  H  2  Z   -0.000000   0.000000   0.000000   1.000000
   35  H  3  S    0.236164   0.373537  -0.071923   0.285856   1.000000
   36  H  3  S    0.570679   0.453693  -0.087356   0.347197   0.684860
   37  H  3  X   -0.029552  -0.049748   0.040736  -0.161903  -0.000000
   38  H  3  Y    0.005690   0.040736   0.153973   0.031174  -0.000000
   39  H  3  Z   -0.022616  -0.161903   0.031174   0.037917  -0.000000
   40  H  3  S    0.874967   0.163071  -0.031399   0.124793   0.303730
   41  H  3  X   -0.163071   0.116521   0.079778  -0.317077   0.000000
   42  H  3  Y    0.031399   0.079778   0.515495   0.061052   0.000000
   43  H  3  Z   -0.124793  -0.317077   0.061052   0.288207  -0.000000
   44  H  4  S    0.239293  -0.035012   0.105867   0.474868   0.104003
   45  H  4  S    0.577129  -0.041644   0.125920   0.564818   0.288928
   46  H  4  X    0.002666   0.169279   0.005358   0.024031   0.118899
   47  H  4  Y   -0.008061   0.005358   0.154851  -0.072665  -0.050407
   48  H  4  Z   -0.036159   0.024031  -0.072665  -0.154889  -0.048255
   49  H  4  S    0.881103  -0.014683   0.044399   0.199152   0.237201
   50  H  4  X    0.014683   0.545346   0.010260   0.046023   0.413844
   51  H  4  Y   -0.044399   0.010260   0.517715  -0.139162  -0.175450
   52  H  4  Z   -0.199152   0.046023  -0.139162  -0.075474  -0.167960

                     36         37         38         39         40

   36  H  3  S    1.000000
   37  H  3  X   -0.000000   1.000000
   38  H  3  Y    0.000000   0.000000   1.000000
   39  H  3  Z   -0.000000   0.000000   0.000000   1.000000
   40  H  3  S    0.707409   0.000000   0.000000  -0.000000   1.000000
   41  H  3  X   -0.000000   0.467431   0.000000   0.000000   0.000000
   42  H  3  Y   -0.000000   0.000000   0.467431   0.000000   0.000000
   43  H  3  Z   -0.000000   0.000000   0.000000   0.467431   0.000000
   44  H  4  S    0.288928  -0.118899   0.050407   0.048255   0.237201
   45  H  4  S    0.583689  -0.146732   0.062207   0.059552   0.572818
   46  H  4  X    0.146732  -0.152514   0.081798   0.078306   0.032327
   47  H  4  Y   -0.062207   0.081798   0.005749  -0.033198  -0.013705
   48  H  4  Z   -0.059552   0.078306  -0.033198   0.008646  -0.013120
   49  H  4  S    0.572818  -0.032327   0.013705   0.013120   0.877005
   50  H  4  X    0.499159  -0.090748   0.108354   0.103729   0.178270
   51  H  4  Y   -0.211619   0.108354   0.118897  -0.043976  -0.075578
   52  H  4  Z   -0.202585   0.103729  -0.043976   0.122735  -0.072351

                     41         42         43         44         45

   41  H  3  X    1.000000
   42  H  3  Y    0.000000   1.000000
   43  H  3  Z    0.000000   0.000000   1.000000
   44  H  4  S   -0.413844   0.175450   0.167960   1.000000
   45  H  4  S   -0.499159   0.211619   0.202585   0.684860   1.000000
   46  H  4  X   -0.090748   0.108354   0.103729  -0.000000   0.000000
   47  H  4  Y    0.108354   0.118897  -0.043976  -0.000000  -0.000000
   48  H  4  Z    0.103729  -0.043976   0.122735   0.000000  -0.000000
   49  H  4  S   -0.178270   0.075578   0.072351   0.303730   0.707409
   50  H  4  X    0.039916   0.210631   0.201639   0.000000   0.000000
   51  H  4  Y    0.210631   0.447447  -0.085485   0.000000  -0.000000
   52  H  4  Z    0.201639  -0.085485   0.454908  -0.000000  -0.000000

                     46         47         48         49         50

   46  H  4  X    1.000000
   47  H  4  Y    0.000000   1.000000
   48  H  4  Z    0.000000   0.000000   1.000000
   49  H  4  S    0.000000  -0.000000  -0.000000   1.000000
   50  H  4  X    0.467431   0.000000   0.000000   0.000000   1.000000
   51  H  4  Y    0.000000   0.467431   0.000000   0.000000   0.000000
   52  H  4  Z    0.000000   0.000000   0.467431   0.000000   0.000000

                     51         52

   51  H  4  Y    1.000000
   52  H  4  Z    0.000000   1.000000
 BARE NUCLEUS HAMILTONIAN INTEGRALS (H=T+V)

                      1          2          3          4          5

    1  N  1  S  -26.017169
    2  N  1  S    6.279145  -8.604654
    3  N  1  S   -4.605782  -4.354190  -6.432176
    4  N  1  X   -0.009443  -0.053550  -0.054250  -7.231653
    5  N  1  Y   -0.031168  -0.176428  -0.177877   0.021941  -7.180288
    6  N  1  Z    0.006041   0.034004   0.033749  -0.007977  -0.009316
    7  N  1  X   -0.001876  -0.037293  -0.069321  -3.403063   0.018978
    8  N  1  Y   -0.006176  -0.121999  -0.223157   0.018978  -3.358237
    9  N  1  Z    0.001188   0.022974   0.039769  -0.006678  -0.008494
   10  N  1 XX   -1.400034  -4.090559  -4.408094  -0.137139  -0.088295
   11  N  1 YY   -1.398272  -4.044503  -4.346272  -0.004925  -0.238665
   12  N  1 ZZ   -1.400182  -4.094127  -4.411800   0.007293  -0.115984
   13  N  1 XY    0.001305   0.034030   0.045328  -0.152931  -0.008530
   14  N  1 XZ   -0.000477  -0.012312  -0.015946   0.009808   0.008400
   15  N  1 YZ   -0.000549  -0.014565  -0.020298   0.008400  -0.002449
   16  N  1  S   -1.817573  -2.340505  -4.031869  -0.029426  -0.096170
   17  N  1  X   -0.000415  -0.010339  -0.027047  -0.937380   0.005544
   18  N  1  Y   -0.001362  -0.033697  -0.086371   0.005544  -0.924232
   19  N  1  Z    0.000260   0.006267   0.014952  -0.001922  -0.002538
   20  N  1 XX   -0.219297  -1.568190  -2.794614  -0.066878  -0.038687
   21  N  1 YY   -0.218804  -1.546536  -2.742960   0.000319  -0.101521
   22  N  1 ZZ   -0.219330  -1.569413  -2.795690   0.006927  -0.053769
   23  N  1 XY    0.000362   0.015853   0.037218  -0.067008   0.000553
   24  N  1 XZ   -0.000129  -0.005545  -0.012241   0.001788   0.004808
   25  N  1 YZ   -0.000159  -0.007162  -0.018349   0.004808  -0.005120
   26  H  2  S   -1.436345  -2.056296  -3.084718   0.576611  -0.895769
   27  H  2  S   -1.977474  -2.427098  -4.014032   0.213716  -0.436951
   28  H  2  X   -0.742557  -0.632947  -0.735092  -1.183536  -0.408271
   29  H  2  Y    1.074997   0.874066   0.999395  -0.377837  -0.866200
   30  H  2  Z   -2.603565  -2.185819  -2.526845   0.937513  -1.432351
   31  H  2  S   -0.962849  -1.331930  -2.448907   0.017863  -0.103116
   32  H  2  X   -0.716210  -0.723554  -1.050372  -1.473264  -0.144182
   33  H  2  Y    1.036240   0.978352   1.370135  -0.098918  -1.317561
   34  H  2  Z   -2.510585  -2.478479  -3.556821   0.262140  -0.532209
   35  H  3  S   -1.369231  -1.991173  -3.010176  -2.241921  -0.321221
   36  H  3  S   -1.951167  -2.398725  -3.973201  -0.961655  -0.205154
   37  H  3  X    2.724667   2.379971   2.735690   2.649653   0.562054
   38  H  3  Y    0.342285   0.271785   0.301293   0.485105  -1.313923
   39  H  3  Z    0.192016   0.172773   0.200304   0.288388   0.038556
   40  H  3  S   -0.959655  -1.327544  -2.441336  -0.150509  -0.070271
   41  H  3  X    2.781454   2.747562   3.941218  -0.206560   0.281713
   42  H  3  Y    0.349032   0.299518   0.396007   0.163781  -1.477711
   43  H  3  Z    0.196120   0.203046   0.296823   0.092717   0.015910
   44  H  4  S   -1.372022  -1.996610  -3.017788   0.803271  -1.615920
   45  H  4  S   -1.952292  -2.401543  -3.978531   0.314658  -0.747121
   46  H  4  X   -0.997764  -0.883815  -1.020985  -0.856347  -1.062269
   47  H  4  Y    1.924997   1.659410   1.898226  -1.015142   0.640077
   48  H  4  Z    1.706815   1.502978   1.732398  -0.913960   1.814912
   49  H  4  S   -0.959794  -1.327979  -2.442346   0.032612  -0.147994
   50  H  4  X   -1.016281  -1.024425  -1.485347  -1.369635  -0.368199
   51  H  4  Y    1.960095   1.900497   2.699410  -0.296679  -0.799009
   52  H  4  Z    1.738346   1.736801   2.505128  -0.276614   0.637143

                      6          7          8          9         10

    6  N  1  Z   -7.235791
    7  N  1  X   -0.006678  -4.272131
    8  N  1  Y   -0.008494   0.036077  -4.185345
    9  N  1  Z   -3.405759  -0.011833  -0.017851  -4.273807
   10  N  1 XX    0.005663  -0.152155  -0.086993   0.001958  -5.252393
   11  N  1 YY   -0.001414   0.001387  -0.227475  -0.007236  -2.438481
   12  N  1 ZZ    0.080450   0.016606  -0.121734   0.085738  -2.455355
   13  N  1 XY    0.008400  -0.150676   0.002402   0.011085   0.015997
   14  N  1 XZ    0.012633   0.003392   0.011085   0.028762  -0.020330
   15  N  1 YZ   -0.200890   0.011085  -0.012533  -0.210849  -0.012179
   16  N  1  S    0.018053  -0.056150  -0.179301   0.031032  -2.470852
   17  N  1  X   -0.001922  -2.141556   0.015274  -0.004875  -0.047158
   18  N  1  Y   -0.002538   0.015274  -2.104569  -0.007823  -0.026513
   19  N  1  Z   -0.938053  -0.004875  -0.007823  -2.141727   0.000408
   20  N  1 XX    0.001033  -0.162268  -0.093513   0.001769  -2.754808
   21  N  1 YY   -0.002956   0.000077  -0.245694  -0.008037  -1.134144
   22  N  1 ZZ    0.037766   0.015270  -0.128607   0.086381  -1.143580
   23  N  1 XY    0.004808  -0.161969   0.000134   0.012096   0.006933
   24  N  1 XZ    0.011999   0.003064   0.012096   0.026448  -0.012248
   25  N  1 YZ   -0.093130   0.012096  -0.013920  -0.222754  -0.007892
   26  H  2  S    2.071516   0.724099  -1.114099   2.591165  -1.644240
   27  H  2  S    0.857906   0.402544  -0.786351   1.582730  -2.461078
   28  H  2  X    0.961935  -1.483064  -0.252295   0.598617  -0.030662
   29  H  2  Y   -1.360995  -0.222235  -1.298241  -0.809138   0.782549
   30  H  2  Z    1.893276   0.575105  -0.880502   0.400683  -1.936327
   31  H  2  S    0.129660   0.057259  -0.243015   0.339413  -1.421582
   32  H  2  X    0.300538  -2.610224  -0.186110   0.400549  -0.621594
   33  H  2  Y   -0.429096  -0.116850  -2.398437  -0.548030   1.055826
   34  H  2  Z   -0.500224   0.342567  -0.706930  -1.334099  -2.644236
   35  H  3  S   -0.150183  -2.858073  -0.402257  -0.193518  -3.109195
   36  H  3  S   -0.050066  -1.782323  -0.358081  -0.099616  -2.680424
   37  H  3  X    0.273675   0.910458   0.352925   0.170969   2.534804
   38  H  3  Y    0.031286   0.275352  -1.564094   0.016432   0.545025
   39  H  3  Z   -1.367693   0.184801   0.023635  -1.597523   0.328967
   40  H  3  S    0.000434  -0.394388  -0.155194  -0.006762  -1.432722
   41  H  3  X    0.068071  -0.941735   0.380072   0.090043   2.443923
   42  H  3  Y    0.004502   0.200068  -2.603585   0.000313   0.375135
   43  H  3  Z   -1.524322   0.124708   0.017351  -2.677721   0.230171
   44  H  4  S   -1.387159   1.026640  -2.053495  -1.770791  -1.700912
   45  H  4  S   -0.567034   0.591634  -1.366451  -1.060725  -2.450701
   46  H  4  X   -0.923175  -1.276056  -0.670948  -0.585231  -0.099814
   47  H  4  Y    1.752074  -0.623140  -0.358835   1.077955   1.582220
   48  H  4  Z    0.179622  -0.575782   1.141505  -0.626909   1.422597
   49  H  4  S   -0.073671   0.096885  -0.363723  -0.205520  -1.418250
   50  H  4  X   -0.291251  -2.473973  -0.486439  -0.392722  -0.866906
   51  H  4  Y    0.543036  -0.376186  -1.719299   0.700910   2.049310
   52  H  4  Z   -1.040491  -0.369038   0.843813  -2.037047   1.850603

                     11         12         13         14         15

   11  N  1 YY   -5.094248
   12  N  1 ZZ   -2.461246  -5.240236
   13  N  1 XY    0.054666   0.041450  -4.047442
   14  N  1 XZ    0.009877  -0.029611  -0.021095  -4.098065
   15  N  1 YZ   -0.042981   0.006190   0.017108   0.071794  -4.115738
   16  N  1  S   -2.433126  -2.472786   0.027555  -0.009555  -0.012613
   17  N  1  X    0.000676   0.005418  -0.045922   0.000706   0.003530
   18  N  1  Y   -0.068996  -0.037370   0.001170   0.003530  -0.004336
   19  N  1  Z   -0.002503   0.026210   0.003530   0.009385  -0.064726
   20  N  1 XX   -1.134144  -1.143580   0.006933  -0.012248  -0.007892
   21  N  1 YY   -2.657416  -1.149188   0.033237   0.007348  -0.027986
   22  N  1 ZZ   -1.149188  -2.743716   0.026625  -0.017943   0.004673
   23  N  1 XY    0.033237   0.026625  -2.320549  -0.013669   0.012728
   24  N  1 XZ    0.007348  -0.017943  -0.013669  -2.348856   0.046116
   25  N  1 YZ   -0.027986   0.004673   0.012728   0.046116  -2.365681
   26  H  2  S   -1.776475  -2.874056   0.284822  -0.646846   0.986719
   27  H  2  S   -2.463693  -2.657598   0.069263  -0.100967   0.161695
   28  H  2  X   -0.611117  -1.075646  -0.589598   1.373555   0.418128
   29  H  2  Y    0.052697   1.513018   0.297068   0.381614   1.050406
   30  H  2  Z   -2.139717  -1.837741   0.417658  -0.483063   0.745650
   31  H  2  S   -1.403916  -1.434814   0.018666  -0.010009   0.005518
   32  H  2  X   -0.754323  -0.812832  -0.286690   0.558946   0.057399
   33  H  2  Y    0.717046   1.136192   0.135374   0.049936   0.502801
   34  H  2  Z   -2.654552  -2.157238   0.085241   0.063767  -0.141973
   35  H  3  S   -1.510426  -1.495831  -0.387371  -0.191858  -0.030473
   36  H  3  S   -2.395519  -2.420525  -0.062134  -0.033785  -0.016303
   37  H  3  X    1.961265   1.931228   0.400694   0.192788   0.049608
   38  H  3  Y   -0.053085   0.225895  -1.695893   0.036203  -0.118089
   39  H  3  Z    0.138349   0.001759   0.045595  -1.756033  -0.251954
   40  H  3  S   -1.396224  -1.417481   0.007515  -0.006330  -0.007674
   41  H  3  X    2.891195   2.927806  -0.058589  -0.001892   0.025912
   42  H  3  Y    0.173087   0.318551  -0.640009   0.008766  -0.048193
   43  H  3  Z    0.200332   0.186142   0.009526  -0.642798  -0.168601
   44  H  4  S   -2.316679  -2.114602   0.730689   0.621334  -1.250488
   45  H  4  S   -2.538178  -2.517343   0.139396   0.083403  -0.216029
   46  H  4  X   -1.209304  -1.085282  -0.838964  -0.728222  -0.762288
   47  H  4  Y    0.829148   2.057068  -0.196000  -0.714890   0.337966
   48  H  4  Z    2.066048   0.577801  -0.757957   0.000168   0.011470
   49  H  4  S   -1.406652  -1.423113   0.022657  -0.000869  -0.020406
   50  H  4  X   -1.122595  -1.107217  -0.460439  -0.366992  -0.099350
   51  H  4  Y    1.542866   2.096452   0.111293  -0.069318  -0.212458
   52  H  4  Z    1.920376   1.466711  -0.110163   0.181401  -0.373639

                     16         17         18         19         20

   16  N  1  S   -3.705361
   17  N  1  X   -0.033957  -2.378022
   18  N  1  Y   -0.107403   0.010116  -2.353345
   19  N  1  Z    0.017934  -0.003130  -0.005376  -2.377740
   20  N  1 XX   -2.603440  -0.078746  -0.048784   0.001949  -3.584869
   21  N  1 YY   -2.558845  -0.002472  -0.131054  -0.002391  -1.368563
   22  N  1 ZZ   -2.603716   0.004105  -0.064040   0.041151  -1.381117
   23  N  1 XY    0.031919  -0.084497  -0.004281   0.005393   0.011774
   24  N  1 XZ   -0.010218   0.003376   0.005393   0.007111  -0.015205
   25  N  1 YZ   -0.016290   0.005393  -0.004142  -0.110921  -0.010282
   26  H  2  S   -2.094066   0.324349  -0.493902   1.156526  -1.090997
   27  H  2  S   -3.294489   0.323498  -0.571012   1.220481  -2.227598
   28  H  2  X   -0.299854  -0.651840  -0.057877   0.138088   0.327199
   29  H  2  Y    0.387290  -0.047531  -0.612863  -0.175573   0.271839
   30  H  2  Z   -1.014906   0.130019  -0.200168  -0.226279  -0.692023
   31  H  2  S   -2.729789   0.116974  -0.287724   0.512610  -1.762472
   32  H  2  X   -0.597805  -1.921104  -0.082479   0.184494  -0.183344
   33  H  2  Y    0.715731  -0.049129  -1.833491  -0.234962   0.689683
   34  H  2  Z   -1.970995   0.156642  -0.311572  -1.349062  -1.796229
   35  H  3  S   -2.063478  -1.288938  -0.178003  -0.087957  -2.729536
   36  H  3  S   -3.271112  -1.375441  -0.240436  -0.084235  -2.722939
   37  H  3  X    1.102276  -0.107928   0.081241   0.038750   0.151277
   38  H  3  Y    0.107586   0.054304  -0.670870   0.002847   0.245309
   39  H  3  Z    0.083075   0.043472   0.005338  -0.678309   0.163392
   40  H  3  S   -2.722774  -0.586410  -0.151548  -0.026318  -1.801812
   41  H  3  X    2.182100  -1.172923   0.163695   0.042248   0.817175
   42  H  3  Y    0.175531   0.077028  -1.920425  -0.001313   0.260477
   43  H  3  Z    0.172159   0.058411   0.006824  -1.952911   0.178273
   44  H  4  S   -2.068187   0.464279  -0.922880  -0.799724  -1.190770
   45  H  4  S   -3.275814   0.472261  -1.025002  -0.833063  -2.244350
   46  H  4  X   -0.417692  -0.604534  -0.155158  -0.135680   0.427318
   47  H  4  Y    0.753626  -0.138533  -0.400897   0.240367   0.595425
   48  H  4  Z    0.704090  -0.132359   0.262400  -0.456185   0.545273
   49  H  4  S   -2.724086   0.179051  -0.476316  -0.336536  -1.760445
   50  H  4  X   -0.842584  -1.859207  -0.219732  -0.182119  -0.240856
   51  H  4  Y    1.459566  -0.166449  -1.533507   0.309927   1.382516
   52  H  4  Z    1.404836  -0.170406   0.378474  -1.660528   1.276373

                     21         22         23         24         25

   21  N  1 YY   -3.458878
   22  N  1 ZZ   -1.385710  -3.567996
   23  N  1 XY    0.042783   0.032178  -3.185689
   24  N  1 XZ    0.008570  -0.020925  -0.017808  -3.223352
   25  N  1 YZ   -0.035810   0.001420   0.014844   0.055735  -3.237131
   26  H  2  S   -1.231771  -2.404609   0.300568  -0.693493   1.049312
   27  H  2  S   -2.257947  -2.628321   0.116485  -0.204628   0.332810
   28  H  2  X   -0.231774  -0.506144  -0.629034   1.478090   0.243778
   29  H  2  Y   -0.483805   0.685919   0.369320   0.216175   1.301497
   30  H  2  Z   -0.808423   0.153980   0.241575  -0.089379   0.142153
   31  H  2  S   -1.743806  -1.796413   0.028106  -0.020157   0.023840
   32  H  2  X   -0.520254  -0.608196  -0.577105   1.199573   0.086652
   33  H  2  Y    0.020464   0.814091   0.309014   0.071847   1.116936
   34  H  2  Z   -1.827817  -0.662743   0.111459   0.189101  -0.341553
   35  H  3  S   -0.985847  -0.967076  -0.417421  -0.210576  -0.031577
   36  H  3  S   -2.160240  -2.178908  -0.139618  -0.065075  -0.022678
   37  H  3  X    0.684044   0.665970   0.131552   0.062332   0.028673
   38  H  3  Y   -0.207426   0.070829  -1.755088   0.019240  -0.122647
   39  H  3  Z    0.048417  -0.092220   0.026474  -1.788139  -0.248128
   40  H  3  S   -1.730437  -1.755600  -0.000729  -0.009747  -0.011394
   41  H  3  X    1.951425   1.979614  -0.121208  -0.032968   0.030434
   42  H  3  Y   -0.092771   0.182158  -1.368214   0.010569  -0.099337
   43  H  3  Z    0.134232   0.067798   0.013466  -1.378386  -0.290148
   44  H  4  S   -1.859609  -1.642874   0.794589   0.683088  -1.362074
   45  H  4  S   -2.447675  -2.381416   0.265565   0.189331  -0.437218
   46  H  4  X   -0.542040  -0.471232  -1.028099  -0.895310  -0.453554
   47  H  4  Y   -0.472718   0.872546   0.164621  -0.418349  -0.280698
   48  H  4  Z    0.923245  -0.493262  -0.449170   0.269460  -0.526275
   49  H  4  S   -1.758488  -1.771632   0.039989   0.007627  -0.047550
   50  H  4  X   -0.817295  -0.790433  -0.974489  -0.796380  -0.152399
   51  H  4  Y    0.310095   1.458239   0.320976  -0.114706  -0.570633
   52  H  4  Z    1.394815   0.399428  -0.160082   0.400918  -0.829895

                     26         27         28         29         30

   26  H  2  S   -4.802199
   27  H  2  S   -3.372103  -4.053264
   28  H  2  X   -0.358999  -0.313400  -3.210338
   29  H  2  Y    0.443541   0.382273   0.102158  -3.263286
   30  H  2  Z   -1.199561  -1.043298  -0.249603   0.334991  -3.995625
   31  H  2  S   -1.509019  -2.535960  -0.139744   0.169313  -0.464288
   32  H  2  X   -0.198562  -0.376179  -1.874943   0.061167  -0.149926
   33  H  2  Y    0.236281   0.404957   0.061167  -1.902201   0.196417
   34  H  2  Z   -0.656182  -1.205811  -0.149926   0.196417  -2.343067
   35  H  3  S   -0.736328  -1.641279  -0.698169   0.211093  -0.713752
   36  H  3  S   -1.654073  -2.726170  -0.784825   0.338913  -1.058397
   37  H  3  X    0.884259   1.247415   0.835005  -0.324407   1.098554
   38  H  3  Y   -0.094700  -0.057982  -0.145925  -0.228578  -0.116024
   39  H  3  Z    0.499840   0.511069   0.685836  -0.173145   0.363354
   40  H  3  S   -1.225423  -2.174436  -0.248451   0.170722  -0.496448
   41  H  3  X    2.166106   2.548267   0.427130  -0.493704   1.553847
   42  H  3  Y   -0.297872  -0.235434  -0.165198  -0.700335  -0.169967
   43  H  3  Z    1.361576   1.256010   0.756079  -0.267756   0.133416
   44  H  4  S   -0.805851  -1.706337  -0.010203  -0.094138  -1.102823
   45  H  4  S   -1.716998  -2.786145  -0.125266   0.056914  -1.376777
   46  H  4  X   -0.166130  -0.309117  -0.309074  -0.005171  -0.276437
   47  H  4  Y    0.378612   0.618501   0.020601  -0.268091   0.648170
   48  H  4  Z    1.026691   1.187223  -0.017352   0.214314   1.562502
   49  H  4  S   -1.239052  -2.192787  -0.108770   0.111816  -0.558738
   50  H  4  X   -0.330083  -0.546255  -0.829641   0.039706  -0.325344
   51  H  4  Y    0.784577   1.093178   0.089560  -0.850600   0.756558
   52  H  4  Z    2.474149   2.569523   0.152715  -0.012802   1.393831

                     31         32         33         34         35

   31  H  2  S   -2.499866
   32  H  2  X   -0.253057  -3.063689
   33  H  2  Y    0.256985   0.094455  -3.059310
   34  H  2  Z   -0.796713  -0.237095   0.261524  -3.760320
   35  H  3  S   -1.214527  -1.840832   0.471505  -1.699020  -4.741026
   36  H  3  S   -2.168127  -1.817748   0.605503  -2.086169  -3.336949
   37  H  3  X    0.558172   0.730169  -0.427436   1.468075   1.286476
   38  H  3  Y    0.011454  -0.108508  -0.727902  -0.069414   0.111107
   39  H  3  Z    0.131368   0.694531  -0.164537  -0.139516   0.099422
   40  H  3  S   -2.281912  -0.683974   0.320889  -1.068842  -1.494837
   41  H  3  X    1.249029  -0.014868  -0.634200   2.169678   0.710978
   42  H  3  Y   -0.052455  -0.190213  -1.758317  -0.170927   0.055407
   43  H  3  Z    0.415287   0.973103  -0.280302  -0.832450   0.056019
   44  H  4  S   -1.230446   0.043830  -0.344075  -2.571066  -0.752361
   45  H  4  S   -2.188600  -0.148696  -0.109053  -2.825550  -1.658160
   46  H  4  X   -0.178591  -0.797844  -0.021348  -0.490848  -0.804126
   47  H  4  Y    0.326636   0.027632  -0.723470   0.992461   0.475861
   48  H  4  Z    0.436497  -0.023569   0.243839   1.236983   0.449871
   49  H  4  S   -2.293736  -0.189133   0.110654  -1.279474  -1.218428
   50  H  4  X   -0.362351  -1.940733   0.045620  -0.614859  -2.068060
   51  H  4  Y    0.634425   0.130443  -1.892826   1.221285   1.091685
   52  H  4  Z    1.080238   0.125407   0.133378   0.963807   1.043829

                     36         37         38         39         40

   36  H  3  S   -4.026841
   37  H  3  X    1.124474  -4.096266
   38  H  3  Y    0.093910  -0.105668  -3.093999
   39  H  3  Z    0.087467  -0.074494  -0.010180  -3.095833
   40  H  3  S   -2.524550   0.501328   0.041110   0.039130  -2.494820
   41  H  3  X    1.320508  -2.422564  -0.060322  -0.045748   0.875416
   42  H  3  Y    0.073602  -0.060322  -1.813683  -0.006373   0.037812
   43  H  3  Z    0.109631  -0.045748  -0.006373  -1.817003   0.074889
   44  H  4  S   -1.660575   0.963730  -0.273740  -0.267883  -1.220786
   45  H  4  S   -2.737640   1.312370  -0.224056  -0.220648  -2.174780
   46  H  4  X   -0.914036   1.083984  -0.437560  -0.425171  -0.306182
   47  H  4  Y    0.720617  -0.780685  -0.056165   0.209962   0.349201
   48  H  4  Z    0.685247  -0.736264   0.202592  -0.068069   0.334655
   49  H  4  S   -2.172634   0.570750  -0.023218  -0.023301  -2.284098
   50  H  4  X   -2.081270   0.996854  -0.372267  -0.360018  -0.816539
   51  H  4  Y    1.371637  -1.004728  -0.592231   0.159502   0.718743
   52  H  4  Z    1.341383  -0.952301   0.153915  -0.601107   0.724584

                     41         42         43         44         45

   41  H  3  X   -3.909755
   42  H  3  Y   -0.053473  -2.953674
   43  H  3  Z   -0.077803  -0.011825  -2.982801
   44  H  4  S    2.331894  -0.773316  -0.740708  -4.752269
   45  H  4  S    2.694130  -0.652999  -0.597127  -3.344292  -4.034667
   46  H  4  X    0.710374  -0.486723  -0.471217  -0.494320  -0.433491
   47  H  4  Y   -1.120610  -0.444702   0.302343   0.868245   0.756229
   48  H  4  Z   -1.067605   0.297917  -0.464842   0.828518   0.725503
   49  H  4  S    1.291085  -0.175333  -0.133134  -1.497987  -2.528458
   50  H  4  X    0.366671  -0.578534  -0.544580  -0.275870  -0.525428
   51  H  4  Y   -1.500267  -1.505727   0.274826   0.474884   0.857862
   52  H  4  Z   -1.474281   0.294885  -1.560776   0.460330   0.865659

                     46         47         48         49         50

   46  H  4  X   -3.241100
   47  H  4  Y    0.263433  -3.573073
   48  H  4  Z    0.236513  -0.442269  -3.505671
   49  H  4  S   -0.193604   0.336526   0.323765  -2.496866
   50  H  4  X   -1.904120   0.160067   0.144249  -0.353132  -3.125409
   51  H  4  Y    0.160067  -2.098976  -0.267284   0.559558   0.252121
   52  H  4  Z    0.144249  -0.267284  -2.065094   0.577362   0.232663

                     51         52

   51  H  4  Y   -3.359911
   52  H  4  Z   -0.405006  -3.377676
 KINETIC ENERGY INTEGRALS

                      1          2          3          4          5

    1  N  1  S   22.120817
    2  N  1  S  -11.936566   7.647345
    3  N  1  S    0.123504   0.351243   0.337200
    4  N  1  X   -0.000000   0.000000   0.000000   3.198406
    5  N  1  Y   -0.000000   0.000000   0.000000  -0.000000   3.198406
    6  N  1  Z   -0.000000   0.000000   0.000000  -0.000000  -0.000000
    7  N  1  X   -0.000000   0.000000  -0.000000   0.457572   0.000000
    8  N  1  Y    0.000000   0.000000   0.000000   0.000000   0.457572
    9  N  1  Z   -0.000000   0.000000   0.000000   0.000000   0.000000
   10  N  1 XX   -0.506003   0.663814   0.291834  -0.000000   0.000000
   11  N  1 YY   -0.506003   0.663814   0.291834  -0.000000   0.000000
   12  N  1 ZZ   -0.506003   0.663814   0.291834  -0.000000   0.000000
   13  N  1 XY   -0.000000  -0.000000   0.000000   0.000000  -0.000000
   14  N  1 XZ   -0.000000   0.000000   0.000000  -0.000000   0.000000
   15  N  1 YZ   -0.000000  -0.000000   0.000000   0.000000  -0.000000
   16  N  1  S    0.013881   0.061836   0.107289   0.000000   0.000000
   17  N  1  X   -0.000000   0.000000  -0.000000   0.037648   0.000000
   18  N  1  Y    0.000000  -0.000000  -0.000000   0.000000   0.037648
   19  N  1  Z   -0.000000   0.000000  -0.000000  -0.000000   0.000000
   20  N  1 XX   -0.087357  -0.079312   0.069382   0.000000   0.000000
   21  N  1 YY   -0.087357  -0.079312   0.069382   0.000000   0.000000
   22  N  1 ZZ   -0.087357  -0.079312   0.069382   0.000000   0.000000
   23  N  1 XY   -0.000000   0.000000   0.000000   0.000000   0.000000
   24  N  1 XZ   -0.000000   0.000000   0.000000  -0.000000   0.000000
   25  N  1 YZ   -0.000000   0.000000   0.000000   0.000000  -0.000000
   26  H  2  S   -0.005300   0.084227   0.148177  -0.067361   0.097776
   27  H  2  S    0.021438   0.089568   0.137190  -0.016513   0.023970
   28  H  2  X    0.010093   0.104451   0.053802   0.123613   0.098529
   29  H  2  Y   -0.014650  -0.151613  -0.078095   0.098529   0.048476
   30  H  2  Z    0.035420   0.366562   0.188813  -0.238217   0.345778
   31  H  2  S    0.003361   0.016527   0.034766  -0.000712   0.001034
   32  H  2  X    0.016528   0.055510   0.059340   0.109974   0.014130
   33  H  2  Y   -0.023991  -0.080575  -0.086133   0.014130   0.099199
   34  H  2  Z    0.058005   0.194809   0.208247  -0.034162   0.049586
   35  H  3  S   -0.006562   0.075531   0.142916   0.247513   0.031256
   36  H  3  S    0.020896   0.087658   0.134995   0.064067   0.008090
   37  H  3  X   -0.026957  -0.389718  -0.206293  -0.811289  -0.124579
   38  H  3  Y   -0.003404  -0.049214  -0.026051  -0.124579   0.159506
   39  H  3  Z   -0.001896  -0.027412  -0.014510  -0.069390  -0.008763
   40  H  3  S    0.003342   0.016437   0.034591   0.002799   0.000353
   41  H  3  X   -0.063788  -0.215080  -0.231030  -0.031752  -0.018824
   42  H  3  Y   -0.008055  -0.027160  -0.029175  -0.018824   0.114939
   43  H  3  Z   -0.004487  -0.015128  -0.016250  -0.010485  -0.001324
   44  H  4  S   -0.006513   0.075869   0.143125  -0.090552   0.174974
   45  H  4  S    0.020917   0.087734   0.135082  -0.023388   0.045192
   46  H  4  X    0.010011   0.142494   0.075343   0.044216   0.254391
   47  H  4  Y   -0.019343  -0.275341  -0.145585   0.254391  -0.315691
   48  H  4  Z   -0.017130  -0.243841  -0.128930   0.225288  -0.435323
   49  H  4  S    0.003343   0.016440   0.034598  -0.001021   0.001973
   50  H  4  X    0.023291   0.078519   0.084326   0.097560   0.038359
   51  H  4  Y   -0.045005  -0.151722  -0.162943   0.038359   0.043291
   52  H  4  Z   -0.039856  -0.134365  -0.144301   0.033970  -0.065641

                      6          7          8          9         10

    6  N  1  Z    3.198406
    7  N  1  X    0.000000   0.546250
    8  N  1  Y    0.000000   0.000000   0.546250
    9  N  1  Z    0.457572   0.000000   0.000000   0.546250
   10  N  1 XX   -0.000000   0.000000   0.000000   0.000000   1.770167
   11  N  1 YY   -0.000000   0.000000   0.000000   0.000000  -0.136167
   12  N  1 ZZ   -0.000000   0.000000   0.000000   0.000000  -0.136167
   13  N  1 XY    0.000000   0.000000   0.000000   0.000000   0.000000
   14  N  1 XZ   -0.000000   0.000000   0.000000   0.000000   0.000000
   15  N  1 YZ    0.000000   0.000000   0.000000   0.000000   0.000000
   16  N  1  S    0.000000  -0.000000   0.000000   0.000000   0.063409
   17  N  1  X   -0.000000   0.130360   0.000000   0.000000  -0.000000
   18  N  1  Y    0.000000   0.000000   0.130360   0.000000  -0.000000
   19  N  1  Z    0.037648   0.000000   0.000000   0.130360   0.000000
   20  N  1 XX   -0.000000   0.000000   0.000000   0.000000   0.288462
   21  N  1 YY   -0.000000   0.000000   0.000000   0.000000  -0.144264
   22  N  1 ZZ   -0.000000   0.000000   0.000000   0.000000  -0.144264
   23  N  1 XY    0.000000   0.000000   0.000000   0.000000   0.000000
   24  N  1 XZ    0.000000   0.000000   0.000000   0.000000   0.000000
   25  N  1 YZ    0.000000   0.000000   0.000000   0.000000   0.000000
   26  H  2  S   -0.236397  -0.093688   0.135990  -0.328789  -0.006713
   27  H  2  S   -0.057952  -0.039696   0.057619  -0.139309   0.081486
   28  H  2  X   -0.238217   0.206689   0.039222  -0.094830  -0.162292
   29  H  2  Y    0.345778   0.039222   0.176778   0.137647  -0.057892
   30  H  2  Z   -0.644508  -0.094830   0.137647  -0.099085   0.139968
   31  H  2  S   -0.002499  -0.003208   0.004657  -0.011258   0.017645
   32  H  2  X   -0.034162   0.248837   0.021564  -0.052136   0.024978
   33  H  2  Y    0.049586   0.021564   0.232392   0.075677  -0.079914
   34  H  2  Z   -0.000178  -0.052136   0.075677   0.080726   0.193211
   35  H  3  S    0.017410   0.360315   0.045501   0.025344   0.419758
   36  H  3  S    0.004506   0.154769   0.019544   0.010886   0.105733
   37  H  3  X   -0.069390  -0.183720  -0.051878  -0.028896  -0.791796
   38  H  3  Y   -0.008763  -0.051878   0.220543  -0.003649  -0.194620
   39  H  3  Z    0.170357  -0.028896  -0.003649   0.225061  -0.108403
   40  H  3  S    0.000197   0.012616   0.001593   0.000887   0.017848
   41  H  3  X   -0.010485   0.031283  -0.028886  -0.016090  -0.157684
   42  H  3  Y   -0.001324  -0.028886   0.256384  -0.002032  -0.034645
   43  H  3  Z    0.116579  -0.016090  -0.002032   0.258900  -0.019297
   44  H  4  S    0.154956  -0.131579   0.254251   0.225163   0.021067
   45  H  4  S    0.040022  -0.056487   0.109150   0.096663   0.081566
   46  H  4  X    0.225288   0.172632   0.105743   0.093645  -0.184705
   47  H  4  Y   -0.435323   0.105743   0.023030  -0.180950  -0.172672
   48  H  4  Z   -0.209651   0.093645  -0.180950   0.067107  -0.152917
   49  H  4  S    0.001748  -0.004603   0.008894   0.007877   0.017573
   50  H  4  X    0.033970   0.229722   0.058849   0.052117   0.036823
   51  H  4  Y   -0.065641   0.058849   0.146463  -0.100705  -0.153446
   52  H  4  Z    0.059280   0.052117  -0.100705   0.170994  -0.135891

                     11         12         13         14         15

   11  N  1 YY    1.770167
   12  N  1 ZZ   -0.136167   1.770167
   13  N  1 XY    0.000000   0.000000   2.859500
   14  N  1 XZ    0.000000   0.000000   0.000000   2.859500
   15  N  1 YZ    0.000000   0.000000   0.000000   0.000000   2.859500
   16  N  1  S    0.063409   0.063409   0.000000   0.000000   0.000000
   17  N  1  X   -0.000000  -0.000000   0.000000   0.000000   0.000000
   18  N  1  Y   -0.000000  -0.000000   0.000000   0.000000   0.000000
   19  N  1  Z    0.000000   0.000000   0.000000   0.000000   0.000000
   20  N  1 XX   -0.144264  -0.144264   0.000000   0.000000   0.000000
   21  N  1 YY    0.288462  -0.144264   0.000000   0.000000   0.000000
   22  N  1 ZZ   -0.144264   0.288462   0.000000   0.000000   0.000000
   23  N  1 XY    0.000000   0.000000   0.649090   0.000000   0.000000
   24  N  1 XZ    0.000000   0.000000   0.000000   0.649090   0.000000
   25  N  1 YZ    0.000000   0.000000   0.000000   0.000000   0.649090
   26  H  2  S    0.028205   0.350255  -0.079309   0.191749  -0.278328
   27  H  2  S    0.083503   0.102103  -0.004581   0.011075  -0.016075
   28  H  2  X    0.068355   0.330943   0.189479  -0.458113  -0.226939
   29  H  2  Y    0.194243  -0.480371  -0.081225  -0.226939  -0.285051
   30  H  2  Z    0.239885   0.451897  -0.226939   0.373591  -0.542275
   31  H  2  S    0.017668   0.017880  -0.000052   0.000126  -0.000183
   32  H  2  X    0.056254   0.067308   0.035086  -0.084829  -0.009554
   33  H  2  Y   -0.037996  -0.097699  -0.022096  -0.009554  -0.077543
   34  H  2  Z    0.197417   0.130659  -0.009554  -0.002949   0.004281
   35  H  3  S   -0.033079  -0.038140   0.100651   0.056063   0.007080
   36  H  3  S    0.078213   0.077905   0.006117   0.003407   0.000430
   37  H  3  X   -0.068841  -0.052384  -0.245300  -0.136632  -0.023018
   38  H  3  Y    0.085939  -0.006615   0.607657  -0.023018   0.042741
   39  H  3  Z   -0.004842   0.049025  -0.023018   0.636161   0.080335
   40  H  3  S    0.017531   0.017528   0.000070   0.000039   0.000005
   41  H  3  X   -0.209832  -0.209111  -0.001581  -0.000881  -0.001009
   42  H  3  Y   -0.011765  -0.026407   0.099223  -0.001009   0.006979
   43  H  3  Z   -0.014759  -0.006503  -0.001009   0.100472   0.012688
   44  H  4  S    0.188922   0.139467  -0.205498  -0.181988   0.351655
   45  H  4  S    0.091747   0.088747  -0.012464  -0.011038   0.021328
   46  H  4  X    0.288372   0.229738   0.214984   0.190389   0.416927
   47  H  4  Y   -0.027645  -0.443921   0.233439   0.416927  -0.399469
   48  H  4  Z   -0.493472   0.075855   0.416927   0.131881  -0.254833
   49  H  4  S    0.017690   0.017656  -0.000144  -0.000127   0.000246
   50  H  4  X    0.088118   0.085553   0.060610   0.053676   0.018240
   51  H  4  Y   -0.087976  -0.165313  -0.016287   0.018240   0.027871
   52  H  4  Z   -0.150790  -0.073521   0.018240  -0.020730   0.040056

                     16         17         18         19         20

   16  N  1  S    0.091860
   17  N  1  X   -0.000000   0.140275
   18  N  1  Y   -0.000000   0.000000   0.140275
   19  N  1  Z    0.000000   0.000000   0.000000   0.140275
   20  N  1 XX    0.080067  -0.000000  -0.000000  -0.000000   0.498333
   21  N  1 YY    0.080067  -0.000000  -0.000000  -0.000000  -0.038333
   22  N  1 ZZ    0.080067  -0.000000  -0.000000  -0.000000  -0.038333
   23  N  1 XY    0.000000  -0.000000  -0.000000  -0.000000   0.000000
   24  N  1 XZ    0.000000  -0.000000  -0.000000  -0.000000   0.000000
   25  N  1 YZ    0.000000  -0.000000  -0.000000  -0.000000   0.000000
   26  H  2  S    0.056308  -0.017984   0.026104  -0.063113  -0.045942
   27  H  2  S    0.088023  -0.021975   0.031898  -0.077121   0.063722
   28  H  2  X    0.005272   0.037193   0.001883  -0.004553  -0.150790
   29  H  2  Y   -0.007653   0.001883   0.035757   0.006608   0.003518
   30  H  2  Z    0.018502  -0.004553   0.006608   0.022513  -0.008506
   31  H  2  S    0.048525  -0.006400   0.009290  -0.022461   0.032063
   32  H  2  X    0.016477   0.124166   0.004779  -0.011555  -0.043642
   33  H  2  Y   -0.023917   0.004779   0.120522   0.016772  -0.047752
   34  H  2  Z    0.057825  -0.011555   0.016772   0.086908   0.115451
   35  H  3  S    0.055705   0.070443   0.008896   0.004955   0.340300
   36  H  3  S    0.087326   0.086246   0.010891   0.006066   0.137538
   37  H  3  X   -0.020630   0.018095  -0.002535  -0.001412   0.137394
   38  H  3  Y   -0.002605  -0.002535   0.037850  -0.000178  -0.054707
   39  H  3  Z   -0.001451  -0.001412  -0.000178   0.038070  -0.030472
   40  H  3  S    0.048340   0.025196   0.003182   0.001772   0.033799
   41  H  3  X   -0.064623   0.075603  -0.006446  -0.003590   0.057469
   42  H  3  Y   -0.008161  -0.006446   0.125831  -0.000453  -0.030422
   43  H  3  Z   -0.004545  -0.003590  -0.000453   0.126392  -0.016945
   44  H  4  S    0.055729  -0.025705   0.049670   0.043988  -0.017677
   45  H  4  S    0.087354  -0.031470   0.060809   0.053852   0.067983
   46  H  4  X    0.007528   0.035510   0.005164   0.004573  -0.200145
   47  H  4  Y   -0.014547   0.005164   0.028205  -0.008836  -0.015904
   48  H  4  Z   -0.012883   0.004573  -0.008836   0.030357  -0.014084
   49  H  4  S    0.048347  -0.009192   0.017762   0.015730   0.032042
   50  H  4  X    0.023580   0.119883   0.013128   0.011626  -0.059186
   51  H  4  Y   -0.045564   0.013128   0.101311  -0.022465  -0.096065
   52  H  4  Z   -0.040351   0.011626  -0.022465   0.106783  -0.085075

                     21         22         23         24         25

   21  N  1 YY    0.498333
   22  N  1 ZZ   -0.038333   0.498333
   23  N  1 XY    0.000000   0.000000   0.805000
   24  N  1 XZ    0.000000   0.000000   0.000000   0.805000
   25  N  1 YZ    0.000000   0.000000   0.000000   0.000000   0.805000
   26  H  2  S   -0.015891   0.261273  -0.068255   0.165024  -0.239536
   27  H  2  S    0.069490   0.122680  -0.013099   0.031669  -0.045969
   28  H  2  X    0.006305   0.086814   0.166678  -0.402985  -0.069579
   29  H  2  Y    0.206205  -0.126013  -0.099711  -0.069579  -0.349925
   30  H  2  Z    0.022128  -0.216012  -0.069579   0.039734  -0.057675
   31  H  2  S    0.032208   0.033545  -0.000329   0.000796  -0.001156
   32  H  2  X    0.035095   0.055365   0.091223  -0.220554  -0.017518
   33  H  2  Y    0.060157  -0.080364  -0.059040  -0.017518  -0.207194
   34  H  2  Z    0.123164  -0.074310  -0.017518  -0.023931   0.034737
   35  H  3  S   -0.066084  -0.070627   0.090326   0.050312   0.006353
   36  H  3  S    0.058523   0.057640   0.017562   0.009782   0.001235
   37  H  3  X    0.032982   0.038193  -0.041219  -0.022959  -0.007289
   38  H  3  Y    0.076222   0.004823   0.481080  -0.007289   0.033838
   39  H  3  Z    0.002320   0.042822  -0.007289   0.490106   0.061891
   40  H  3  S    0.031797   0.031774   0.000445   0.000248   0.000031
   41  H  3  X   -0.122053  -0.120724   0.006214   0.003461  -0.001858
   42  H  3  Y    0.022266  -0.015245   0.255064  -0.001858   0.017941
   43  H  3  Z   -0.008585   0.012496  -0.001858   0.257365   0.032500
   44  H  4  S    0.132707   0.088400  -0.184109  -0.163046   0.315054
   45  H  4  S    0.097208   0.088597  -0.035778  -0.031685   0.061225
   46  H  4  X    0.071164   0.052622   0.271653   0.240575   0.131845
   47  H  4  Y    0.265134  -0.101681  -0.031581   0.131845   0.054043
   48  H  4  Z   -0.121778   0.266531   0.131845  -0.063697   0.123082
   49  H  4  S    0.032782   0.032564  -0.000906  -0.000803   0.001551
   50  H  4  X    0.065752   0.061027   0.162605   0.144002   0.033596
   51  H  4  Y    0.083377  -0.117922  -0.056375   0.033596   0.096472
   52  H  4  Z   -0.112516   0.081924   0.033596  -0.064559   0.124747

                     26         27         28         29         30

   26  H  2  S    0.969457
   27  H  2  S    0.201234   0.183000
   28  H  2  X    0.000000   0.000000   1.817500
   29  H  2  Y    0.000000   0.000000   0.000000   1.817500
   30  H  2  Z   -0.000000   0.000000   0.000000   0.000000   1.817500
   31  H  2  S    0.025525   0.050745   0.000000  -0.000000   0.000000
   32  H  2  X   -0.000000  -0.000000   0.276008  -0.000000   0.000000
   33  H  2  Y    0.000000  -0.000000  -0.000000   0.276008   0.000000
   34  H  2  Z    0.000000  -0.000000   0.000000   0.000000   0.276008
   35  H  3  S   -0.033291   0.034448  -0.010986   0.002115  -0.008407
   36  H  3  S    0.034448   0.067153   0.043250  -0.008328   0.033098
   37  H  3  X    0.010986  -0.043250  -0.047487   0.005053  -0.020083
   38  H  3  Y   -0.002115   0.008328   0.005053  -0.022217   0.003867
   39  H  3  Z    0.008407  -0.033098  -0.020083   0.003867  -0.036613
   40  H  3  S    0.016516   0.035075   0.003788  -0.000729   0.002899
   41  H  3  X   -0.123798  -0.113505  -0.066880   0.023469  -0.093275
   42  H  3  Y    0.023837   0.021855   0.023469   0.050487   0.017960
   43  H  3  Z   -0.094739  -0.086861  -0.093275   0.017960  -0.016375
   44  H  4  S   -0.031865   0.038741   0.000401  -0.001212  -0.005435
   45  H  4  S    0.038741   0.071187  -0.004170   0.012611   0.056565
   46  H  4  X   -0.000401   0.004170  -0.020001   0.001288   0.005779
   47  H  4  Y    0.001212  -0.012611   0.001288  -0.023470  -0.017474
   48  H  4  Z    0.005435  -0.056565   0.005779  -0.017474  -0.097953
   49  H  4  S    0.016911   0.035782  -0.000344   0.001040   0.004663
   50  H  4  X    0.012004   0.010586   0.059344   0.003157   0.014160
   51  H  4  Y   -0.036298  -0.032009   0.003157   0.050842  -0.042816
   52  H  4  Z   -0.162818  -0.143577   0.014160  -0.042816  -0.131666

                     31         32         33         34         35

   31  H  2  S    0.044610
   32  H  2  X    0.000000   0.352500
   33  H  2  Y    0.000000   0.000000   0.352500
   34  H  2  Z   -0.000000   0.000000   0.000000   0.352500
   35  H  3  S    0.016516   0.123798  -0.023837   0.094739   0.969457
   36  H  3  S    0.035075   0.113505  -0.021855   0.086861   0.201234
   37  H  3  X   -0.003788  -0.066880   0.023469  -0.093275   0.000000
   38  H  3  Y    0.000729   0.023469   0.050487   0.017960  -0.000000
   39  H  3  Z   -0.002899  -0.093275   0.017960  -0.016375  -0.000000
   40  H  3  S    0.035557   0.018258  -0.003515   0.013972   0.025525
   41  H  3  X   -0.018258  -0.027752   0.032247  -0.128166  -0.000000
   42  H  3  Y    0.003515   0.032247   0.133517   0.024678  -0.000000
   43  H  3  Z   -0.013972  -0.128166   0.024678   0.041645  -0.000000
   44  H  4  S    0.016911  -0.012004   0.036298   0.162818  -0.032901
   45  H  4  S    0.035782  -0.010586   0.032009   0.143577   0.035842
   46  H  4  X    0.000344   0.059344   0.003157   0.014160  -0.009849
   47  H  4  Y   -0.001040   0.003157   0.050842  -0.042816   0.004176
   48  H  4  Z   -0.004663   0.014160  -0.042816  -0.131666   0.003997
   49  H  4  S    0.035989  -0.001652   0.004996   0.022411   0.016647
   50  H  4  X    0.001652   0.145610   0.004195   0.018818   0.138733
   51  H  4  Y   -0.004996   0.004195   0.134312  -0.056901  -0.058816
   52  H  4  Z   -0.022411   0.018818  -0.056901  -0.108232  -0.056305

                     36         37         38         39         40

   36  H  3  S    0.183000
   37  H  3  X   -0.000000   1.817500
   38  H  3  Y    0.000000   0.000000   1.817500
   39  H  3  Z   -0.000000   0.000000   0.000000   1.817500
   40  H  3  S    0.050745   0.000000   0.000000  -0.000000   0.044610
   41  H  3  X   -0.000000   0.276008   0.000000   0.000000   0.000000
   42  H  3  Y   -0.000000   0.000000   0.276008   0.000000   0.000000
   43  H  3  Z    0.000000   0.000000   0.000000   0.276008   0.000000
   44  H  4  S    0.035842   0.009849  -0.004176  -0.003997   0.016647
   45  H  4  S    0.068477  -0.048377   0.020509   0.019634   0.035309
   46  H  4  X    0.048377  -0.061738   0.017349   0.016608   0.004152
   47  H  4  Y   -0.020509   0.017349  -0.028171  -0.007041  -0.001760
   48  H  4  Z   -0.019634   0.016608  -0.007041  -0.027557  -0.001685
   49  H  4  S    0.035309  -0.004152   0.001760   0.001685   0.035700
   50  H  4  X    0.125547  -0.091610   0.062898   0.060213   0.019993
   51  H  4  Y   -0.053226   0.062898   0.030085  -0.025527  -0.008476
   52  H  4  Z   -0.050954   0.060213  -0.025527   0.032313  -0.008114

                     41         42         43         44         45

   41  H  3  X    0.352500
   42  H  3  Y    0.000000   0.352500
   43  H  3  Z    0.000000   0.000000   0.352500
   44  H  4  S   -0.138733   0.058816   0.056305   0.969457
   45  H  4  S   -0.125547   0.053226   0.050954   0.201234   0.183000
   46  H  4  X   -0.091610   0.062898   0.060213   0.000000   0.000000
   47  H  4  Y    0.062898   0.030085  -0.025527   0.000000  -0.000000
   48  H  4  Z    0.060213  -0.025527   0.032313   0.000000  -0.000000
   49  H  4  S   -0.019993   0.008476   0.008114   0.025525   0.050745
   50  H  4  X   -0.059484   0.085467   0.081818  -0.000000   0.000000
   51  H  4  Y    0.085467   0.105877  -0.034687  -0.000000  -0.000000
   52  H  4  Z    0.081818  -0.034687   0.108905   0.000000  -0.000000

                     46         47         48         49         50

   46  H  4  X    1.817500
   47  H  4  Y    0.000000   1.817500
   48  H  4  Z    0.000000   0.000000   1.817500
   49  H  4  S    0.000000  -0.000000  -0.000000   0.044610
   50  H  4  X    0.276008   0.000000  -0.000000   0.000000   0.352500
   51  H  4  Y    0.000000   0.276008   0.000000   0.000000   0.000000
   52  H  4  Z   -0.000000   0.000000   0.276008   0.000000   0.000000

                     51         52

   51  H  4  Y    0.352500
   52  H  4  Z    0.000000   0.352500
 ...... END OF ONE-ELECTRON INTEGRALS ......
 STEP CPU TIME =     0.00 TOTAL CPU TIME =        0.0 (    0.0 MIN)
 TOTAL WALL CLOCK TIME=        0.4 SECONDS, CPU UTILIZATION IS   5.26%

          -------------
          GUESS OPTIONS
          -------------
          GUESS =HUCKEL            NORB  =       0          NORDER=       0
          MIX   =       F          PRTMO =       F          PUNMO =       F
          TOLZ  = 1.0E-08          TOLE  = 1.0E-05
          SYMDEN=       F          PURIFY=       F

 INITIAL GUESS ORBITALS GENERATED BY HUCKEL   ROUTINE.
 HUCKEL GUESS REQUIRES     22824 WORDS.

 STATISTICS FOR GENERATION OF SYMMETRY ORBITAL -Q- MATRIX
 NUMBER OF CARTESIAN ATOMIC ORBITALS=         52
 NUMBER OF SPHERICAL CONTAMINANTS DROPPED=     2
 NUMBER OF LINEARLY DEPENDENT MOS DROPPED=     0
 TOTAL NUMBER OF MOS IN VARIATION SPACE=      50

 SYMMETRIES FOR INITIAL GUESS ORBITALS FOLLOW.   BOTH SET(S).
     5 ORBITALS ARE OCCUPIED (    1 CORE ORBITALS).
     2=A        3=A        4=A        5=A        6=A        7=A        8=A   
     9=A       10=A       11=A       12=A       13=A       14=A       15=A   
 ...... END OF INITIAL ORBITAL SELECTION ......
 STEP CPU TIME =     0.00 TOTAL CPU TIME =        0.0 (    0.0 MIN)
 TOTAL WALL CLOCK TIME=        0.4 SECONDS, CPU UTILIZATION IS   4.76%

                    ----------------------
                    AO INTEGRAL TECHNOLOGY
                    ----------------------
     S,P,L SHELL ROTATED AXIS INTEGRALS, REPROGRAMMED BY
        KAZUYA ISHIMURA (IMS) AND JOSE SIERRA (SYNSTAR).
     S,P,D,L SHELL ROTATED AXIS INTEGRALS PROGRAMMED BY
        KAZUYA ISHIMURA (INSTITUTE FOR MOLECULAR SCIENCE).
     S,P,D,F,G SHELL TO TOTAL QUARTET ANGULAR MOMENTUM SUM 5,
        ERIC PROGRAM BY GRAHAM FLETCHER (ELORET AND NASA ADVANCED
        SUPERCOMPUTING DIVISION, AMES RESEARCH CENTER).
     S,P,D,F,G,L SHELL GENERAL RYS QUADRATURE PROGRAMMED BY
        MICHEL DUPUIS (PACIFIC NORTHWEST NATIONAL LABORATORY).

          --------------------
          2 ELECTRON INTEGRALS
          --------------------

 DIRECT SCF METHOD SKIPS INTEGRAL STORAGE ON DISK.
 DIRECT TRANSFORMATION SKIPS AO INTEGRAL STORAGE ON DISK.
  ...... END OF TWO-ELECTRON INTEGRALS .....
 STEP CPU TIME =     0.01 TOTAL CPU TIME =        0.0 (    0.0 MIN)
 TOTAL WALL CLOCK TIME=        0.4 SECONDS, CPU UTILIZATION IS   6.67%

          --------------------------
                 RHF SCF CALCULATION
          --------------------------

     NUCLEAR ENERGY =        12.1451530544
     MAXIT =   30     NPUNCH=    2
     EXTRAP=T  DAMP=F  SHIFT=F  RSTRCT=F  DIIS=F  DEM=F  SOSCF=T
     DENSITY MATRIX CONV=  2.00E-05
     SOSCF WILL OPTIMIZE     225 ORBITAL ROTATIONS, SOGTOL=   0.250
     MEMORY REQUIRED FOR RHF ITERS=     66552 WORDS.

 DIRECT SCF CALCULATION, SCHWRZ=T   FDIFF=T,  DIRTHR=  0.00E+00 NITDIR=10
 SCHWARZ INEQUALITY OVERHEAD:      1378 INTEGRALS, T=        0.00

                                                                                   NONZERO     BLOCKS
 ITER EX DEM     TOTAL ENERGY        E CHANGE  DENSITY CHANGE     ORB. GRAD      INTEGRALS    SKIPPED
   1  0  0      -55.9871138446   -55.9871138446   0.201444944   0.000000000         902656          0
          ---------------START SECOND ORDER SCF---------------
   2  1  0      -56.1901763721    -0.2030625275   0.067420034   0.030018111         902656          0
   3  2  0      -56.2022509268    -0.0120745548   0.027722532   0.009607724         902656          0
   4  3  0      -56.2038841980    -0.0016332712   0.007331564   0.003346849         902656          0
   5  4  0      -56.2039640213    -0.0000798233   0.001608255   0.000908702         902656          0
   6  5  0      -56.2039775636    -0.0000135423   0.000429461   0.000183064         902656          0
   7  6  0      -56.2039782362    -0.0000006726   0.000107515   0.000037441         902656          0
   8  7  0      -56.2039782547    -0.0000000185   0.000049886   0.000015044         902656          0
   9  8  0      -56.2039782580    -0.0000000033   0.000003875   0.000001679         902656          0
  10  9  0      -56.2039782580    -0.0000000001   0.000001244   0.000000484         902644          3

          -----------------
          DENSITY CONVERGED
          -----------------
     TIME TO FORM FOCK OPERATORS=       0.9 SECONDS (       0.1 SEC/ITER)
     FOCK TIME ON FIRST ITERATION=       0.1, LAST ITERATION=       0.1
     TIME TO SOLVE SCF EQUATIONS=       0.0 SECONDS (       0.0 SEC/ITER)

 FINAL RHF ENERGY IS      -56.2039782580 AFTER  10 ITERATIONS

          ------------
          EIGENVECTORS
          ------------

                      1          2          3          4          5
                  -15.5492    -1.1577    -0.6352    -0.6235    -0.4393
[...]
   52  H  4  Z   -0.002060   0.000202   0.001282  -0.002616   0.000026

                     11         12         13         14         15

   11  N  1 YY    0.001385
   12  N  1 ZZ    0.000000   0.000793
   13  N  1 XY    0.000000   0.000000   0.000110
   14  N  1 XZ    0.000000   0.000000   0.000000   0.001710
   15  N  1 YZ    0.000000   0.000000   0.000000   0.000000   0.000000
   16  N  1  S    0.000000   0.000000   0.000000   0.000000   0.000000
   17  N  1  X    0.000000   0.000000   0.000000   0.000000   0.000000
   18  N  1  Y    0.000000   0.000000   0.000000   0.000000   0.000000
   19  N  1  Z    0.000000   0.000000   0.000000   0.000000   0.000000
   20  N  1 XX    0.000000   0.000000   0.000000   0.000000   0.000000
   21  N  1 YY   -0.000250   0.000000   0.000000   0.000000   0.000000
   22  N  1 ZZ    0.000000   0.000018   0.000000   0.000000   0.000000
   23  N  1 XY    0.000000   0.000000  -0.000137   0.000000   0.000000
   24  N  1 XZ    0.000000   0.000000   0.000000  -0.000430   0.000000
   25  N  1 YZ    0.000000   0.000000   0.000000   0.000000   0.000000
   26  H  2  S    0.000154   0.000134   0.000579   0.003867   0.000000
   27  H  2  S    0.000009   0.000008   0.000038   0.000257   0.000000
   28  H  2  X   -0.000045   0.000084  -0.000044   0.000070   0.000000
   29  H  2  Y    0.000059  -0.000014   0.000030  -0.000214   0.000000
   30  H  2  Z    0.000033   0.000033   0.000028   0.000208   0.000000
   31  H  2  S    0.000000   0.000000   0.000000   0.000001   0.000000
   32  H  2  X    0.000013  -0.000004  -0.000012   0.000005   0.000000
   33  H  2  Y    0.000013  -0.000009   0.000001  -0.000011   0.000000
   34  H  2  Z    0.000001   0.000002  -0.000004  -0.000024   0.000000
   35  H  3  S    0.004007   0.001048  -0.000002  -0.000001   0.000000
   36  H  3  S    0.000274   0.000070  -0.000000  -0.000000   0.000000
   37  H  3  X    0.000143   0.000099  -0.000001   0.000001   0.000000
   38  H  3  Y    0.000113  -0.000035   0.000001   0.000000   0.000000
   39  H  3  Z    0.000005   0.000002  -0.000094   0.000052   0.000000
   40  H  3  S    0.000001   0.000000  -0.000000  -0.000000   0.000000
   41  H  3  X   -0.000099  -0.000003  -0.000000   0.000000   0.000000
   42  H  3  Y    0.000005   0.000049   0.000000  -0.000001   0.000000
   43  H  3  Z    0.000000   0.000000   0.000006  -0.000002   0.000000
   44  H  4  S    0.001520   0.001063   0.000631   0.004199   0.000000
   45  H  4  S    0.000100   0.000073   0.000044   0.000294   0.000000
   46  H  4  X    0.000015   0.000075  -0.000035   0.000112   0.000000
   47  H  4  Y   -0.000081   0.000036   0.000053   0.000123   0.000000
   48  H  4  Z    0.000152   0.000075   0.000001   0.000004   0.000000
   49  H  4  S    0.000000   0.000000   0.000000   0.000001   0.000000
   50  H  4  X    0.000036  -0.000018  -0.000014   0.000010   0.000000
   51  H  4  Y   -0.000015  -0.000016   0.000003  -0.000042   0.000000
   52  H  4  Z    0.000011   0.000006  -0.000009  -0.000060   0.000000

                     16         17         18         19         20

   16  N  1  S    0.015099
   17  N  1  X    0.000000   0.001068
   18  N  1  Y    0.000000   0.000000   0.008220
   19  N  1  Z    0.000000   0.000000   0.000000   0.000305
   20  N  1 XX    0.000000   0.000000   0.000000   0.000000   0.001083
   21  N  1 YY    0.000000   0.000000   0.000000   0.000000   0.000000
   22  N  1 ZZ    0.000000   0.000000   0.000000   0.000000   0.000000
   23  N  1 XY    0.000000   0.000000   0.000000   0.000000   0.000000
   24  N  1 XZ    0.000000   0.000000   0.000000   0.000000   0.000000
   25  N  1 YZ    0.000000   0.000000   0.000000   0.000000   0.000000
   26  H  2  S   -0.005900  -0.000537   0.001717   0.000535  -0.005203
   27  H  2  S   -0.007093  -0.000343   0.001105   0.000342  -0.000862
   28  H  2  X   -0.000032   0.000089   0.000008   0.000004  -0.000005
   29  H  2  Y    0.000080   0.000003   0.000277  -0.000007  -0.000046
   30  H  2  Z   -0.000078  -0.000010   0.000032  -0.000026   0.000422
   31  H  2  S   -0.000883  -0.000021   0.000073   0.000028  -0.000004
   32  H  2  X   -0.000085   0.000216   0.000014   0.000006  -0.000054
   33  H  2  Y    0.000275   0.000011   0.001166  -0.000022   0.000012
   34  H  2  Z   -0.000119  -0.000010   0.000026  -0.000011   0.000386
   35  H  3  S   -0.004702   0.001708   0.000620  -0.000082  -0.002650
   36  H  3  S   -0.006067   0.001046   0.000409  -0.000059  -0.000508
   37  H  3  X   -0.000043  -0.000059   0.000012  -0.000001   0.000087
   38  H  3  Y    0.000032  -0.000006   0.000366   0.000000   0.000009
   39  H  3  Z   -0.000004   0.000001   0.000000   0.000017   0.000021
   40  H  3  S   -0.000704   0.000059   0.000022  -0.000003  -0.000002
   41  H  3  X    0.000057  -0.000011   0.000003  -0.000001   0.000189
   42  H  3  Y    0.000100  -0.000017   0.001307   0.000001   0.000004
   43  H  3  Z   -0.000010   0.000002   0.000001   0.000057  -0.000006
   44  H  4  S   -0.004797  -0.000591   0.003267  -0.000482  -0.000135
   45  H  4  S   -0.005914  -0.000337   0.002044  -0.000317  -0.000016
   46  H  4  X   -0.000050   0.000096   0.000027  -0.000005   0.000031
   47  H  4  Y    0.000122   0.000005   0.000126   0.000005   0.000018
   48  H  4  Z   -0.000091  -0.000010   0.000052   0.000045   0.000311
   49  H  4  S   -0.000777  -0.000023   0.000133  -0.000022  -0.000000
   50  H  4  X   -0.000133   0.000217   0.000047  -0.000007  -0.000022
   51  H  4  Y    0.000475   0.000028   0.000892   0.000025   0.000038
   52  H  4  Z   -0.000204  -0.000014   0.000077   0.000098   0.000059

                     21         22         23         24         25

   21  N  1 YY    0.000961
   22  N  1 ZZ    0.000000   0.000325
   23  N  1 XY    0.000000   0.000000   0.000758
   24  N  1 XZ    0.000000   0.000000   0.000000   0.000552
   25  N  1 YZ    0.000000   0.000000   0.000000   0.000000   0.000000
   26  H  2  S   -0.000037  -0.000186  -0.002227  -0.002013   0.000000
   27  H  2  S   -0.000012  -0.000010  -0.000377  -0.000387   0.000000
   28  H  2  X    0.000104   0.000027   0.000257  -0.000014   0.000000
   29  H  2  Y    0.000066  -0.000040  -0.000032   0.000260   0.000000
   30  H  2  Z   -0.000002  -0.000026   0.000003   0.000001   0.000000
   31  H  2  S   -0.000000  -0.000000  -0.000002  -0.000002   0.000000
   32  H  2  X   -0.000003   0.000023   0.000124  -0.000004   0.000000
   33  H  2  Y    0.000076  -0.000036  -0.000001   0.000104   0.000000
   34  H  2  Z   -0.000002  -0.000001   0.000051   0.000055   0.000000
   35  H  3  S   -0.006473   0.000147  -0.000228   0.000000   0.000000
   36  H  3  S   -0.001062  -0.000002  -0.000033   0.000001   0.000000
   37  H  3  X    0.000283   0.000005  -0.000003  -0.000001   0.000000
   38  H  3  Y    0.000012   0.000242  -0.000001  -0.000013   0.000000
   39  H  3  Z   -0.000005  -0.000000   0.000342  -0.000030   0.000000
   40  H  3  S   -0.000005   0.000000  -0.000000  -0.000000   0.000000
   41  H  3  X    0.000315   0.000003   0.000003   0.000000   0.000000
   42  H  3  Y    0.000041   0.000154   0.000000  -0.000005   0.000000
   43  H  3  Z   -0.000002   0.000000  -0.000023   0.000006   0.000000
   44  H  4  S   -0.000495  -0.001605  -0.002147  -0.004297   0.000000
   45  H  4  S   -0.000122  -0.000225  -0.000420  -0.000750   0.000000
   46  H  4  X    0.000152   0.000136   0.000074  -0.000053   0.000000
   47  H  4  Y    0.000149   0.000018  -0.000089   0.000087   0.000000
   48  H  4  Z   -0.000005  -0.000068   0.000019   0.000092   0.000000
   49  H  4  S   -0.000000  -0.000001  -0.000002  -0.000004   0.000000
   50  H  4  X   -0.000010   0.000099   0.000108  -0.000021   0.000000
   51  H  4  Y    0.000174  -0.000012  -0.000027   0.000060   0.000000
   52  H  4  Z   -0.000005  -0.000019   0.000086   0.000168   0.000000

                     26         27         28         29         30

   26  H  2  S    0.417373
   27  H  2  S    0.118242   0.083082
   28  H  2  X    0.000000   0.000000   0.001009
   29  H  2  Y    0.000000   0.000000   0.000000   0.001288
   30  H  2  Z    0.000000   0.000000   0.000000   0.000000   0.003890
   31  H  2  S    0.003582   0.004037   0.000000   0.000000   0.000000
   32  H  2  X    0.000000   0.000000   0.000113   0.000000   0.000000
   33  H  2  Y    0.000000   0.000000   0.000000   0.000256   0.000000
   34  H  2  Z    0.000000   0.000000   0.000000   0.000000   0.000910
   35  H  3  S   -0.004596  -0.016213   0.001628  -0.000038   0.000112
   36  H  3  S   -0.016993  -0.018331   0.000755  -0.000060  -0.000536
   37  H  3  X    0.000484  -0.000515   0.000189   0.000004   0.000178
   38  H  3  Y    0.000115   0.000064   0.000002   0.000020   0.000016
   39  H  3  Z    0.001108   0.000651   0.000070   0.000012   0.000048
   40  H  3  S   -0.000910  -0.001085   0.000011  -0.000001  -0.000008
   41  H  3  X   -0.003164  -0.002332   0.000037  -0.000003  -0.000102
   42  H  3  Y    0.000267   0.000093   0.000020   0.000060   0.000015
   43  H  3  Z   -0.000683  -0.000460   0.000017  -0.000006   0.000005
   44  H  4  S   -0.004253  -0.017476   0.000053   0.000346   0.001716
   45  H  4  S   -0.018179  -0.020742   0.000059   0.000259  -0.000078
   46  H  4  X   -0.000031  -0.000053   0.000023   0.000003   0.000011
   47  H  4  Y   -0.000148  -0.000229   0.000002  -0.000005   0.000049
   48  H  4  Z    0.002273   0.000554  -0.000006   0.000009   0.000535
   49  H  4  S   -0.000800  -0.001101   0.000001   0.000004   0.000000
   50  H  4  X   -0.000049  -0.000064  -0.000027   0.000003   0.000007
   51  H  4  Y   -0.000903  -0.000537   0.000004  -0.000012  -0.000033
   52  H  4  Z   -0.002056  -0.001885   0.000008   0.000051   0.000040

                     31         32         33         34         35

   31  H  2  S    0.000405
   32  H  2  X    0.000000   0.000334
   33  H  2  Y    0.000000   0.000000   0.000440
   34  H  2  Z    0.000000   0.000000   0.000000   0.001571
   35  H  3  S   -0.000802  -0.001058  -0.000401  -0.001695   0.407554
   36  H  3  S   -0.001073  -0.000905  -0.000204  -0.001524   0.113371
   37  H  3  X   -0.000007  -0.000004  -0.000022  -0.000026   0.000000
   38  H  3  Y    0.000001   0.000013   0.000076   0.000006   0.000000
   39  H  3  Z    0.000010   0.000058  -0.000000  -0.000033   0.000000
   40  H  3  S   -0.000089  -0.000018  -0.000006  -0.000036   0.003139
   41  H  3  X   -0.000056   0.000040  -0.000013  -0.000193   0.000000
   42  H  3  Y    0.000005   0.000014   0.000230   0.000005   0.000000
   43  H  3  Z   -0.000009  -0.000018  -0.000007   0.000055   0.000000
   44  H  4  S   -0.000793   0.000004   0.000597  -0.003088  -0.004299
   45  H  4  S   -0.001154   0.000033   0.000296  -0.002821  -0.016660
   46  H  4  X   -0.000001  -0.000013   0.000003  -0.000012   0.001898
   47  H  4  Y   -0.000004   0.000001   0.000004  -0.000038  -0.000067
   48  H  4  Z    0.000010  -0.000011   0.000034   0.000095  -0.000008
   49  H  4  S   -0.000082   0.000000   0.000010  -0.000059  -0.000717
   50  H  4  X   -0.000001   0.000018   0.000003  -0.000010  -0.000895
   51  H  4  Y   -0.000015   0.000003   0.000135  -0.000068  -0.001369
   52  H  4  Z   -0.000036   0.000002   0.000044  -0.000034  -0.000571

                     36         37         38         39         40

   36  H  3  S    0.079292
   37  H  3  X    0.000000   0.004532
   38  H  3  Y    0.000000   0.000000   0.000928
   39  H  3  Z    0.000000   0.000000   0.000000   0.000672
   40  H  3  S    0.003607   0.000000   0.000000   0.000000   0.000337
   41  H  3  X    0.000000   0.000955   0.000000   0.000000   0.000000
   42  H  3  Y    0.000000   0.000000   0.000227   0.000000   0.000000
   43  H  3  Z    0.000000   0.000000   0.000000  -0.000024   0.000000
   44  H  4  S   -0.016770   0.000840   0.000552   0.000456  -0.000809
   45  H  4  S   -0.018423  -0.000449   0.000321   0.000328  -0.000984
   46  H  4  X    0.000741   0.000296   0.000034   0.000017   0.000011
   47  H  4  Y   -0.000274   0.000071  -0.000001   0.000026  -0.000005
   48  H  4  Z   -0.000273   0.000087   0.000033   0.000000  -0.000004
   49  H  4  S   -0.000941  -0.000005   0.000006   0.000004  -0.000067
   50  H  4  X   -0.000914   0.000005   0.000055   0.000031  -0.000016
   51  H  4  Y   -0.000806  -0.000062   0.000023   0.000025  -0.000021
   52  H  4  Z   -0.000553   0.000006   0.000026  -0.000064  -0.000010

                     41         42         43         44         45

   41  H  3  X    0.001576
   42  H  3  Y    0.000000   0.000501
   43  H  3  Z    0.000000   0.000000   0.000061
   44  H  4  S   -0.003204   0.000630  -0.000180   0.409275
   45  H  4  S   -0.002443   0.000195  -0.000085   0.114891   0.081776
   46  H  4  X    0.000062   0.000061  -0.000024   0.000000   0.000000
   47  H  4  Y   -0.000033   0.000021  -0.000001   0.000000   0.000000
   48  H  4  Z   -0.000066   0.000023   0.000002   0.000000   0.000000
   49  H  4  S   -0.000053   0.000010  -0.000003   0.003243   0.003706
   50  H  4  X    0.000013   0.000043  -0.000010   0.000000   0.000000
   51  H  4  Y   -0.000077   0.000182   0.000005   0.000000   0.000000
   52  H  4  Z   -0.000085   0.000016   0.000029   0.000000   0.000000

                     46         47         48         49         50

   46  H  4  X    0.001327
   47  H  4  Y    0.000000   0.002440
   48  H  4  Z    0.000000   0.000000   0.002396
   49  H  4  S    0.000000   0.000000   0.000000   0.000349
   50  H  4  X    0.000226   0.000000   0.000000   0.000000   0.000478
   51  H  4  Y    0.000000   0.000455   0.000000   0.000000   0.000000
   52  H  4  Z    0.000000   0.000000   0.000497   0.000000   0.000000

                     51         52

   51  H  4  Y    0.000715
   52  H  4  Z    0.000000   0.000958

               ----- POPULATIONS IN EACH AO -----
                             MULLIKEN      LOWDIN
              1  N  1  S      2.00426     1.84775
              2  N  1  S      0.76015     0.51753
              3  N  1  S      0.56828     0.27663
              4  N  1  X      0.74246     0.65307
              5  N  1  Y      0.88124     0.79791
              6  N  1  Z      0.73686     0.64869
              7  N  1  X      0.33924     0.44327
              8  N  1  Y      0.58699     0.51232
              9  N  1  Z      0.31688     0.43693
             10  N  1 XX      0.00557     0.14231
             11  N  1 YY      0.00756     0.11786
             12  N  1 ZZ      0.00357     0.13905
             13  N  1 XY      0.00117     0.00436
             14  N  1 XZ      0.01013     0.00362
             15  N  1 YZ      0.00000     0.01472
             16  N  1  S      0.03646     0.05612
             17  N  1  X      0.00685     0.04160
             18  N  1  Y      0.05707     0.06188
             19  N  1  Z      0.00152     0.03893
             20  N  1 XX     -0.00718     0.04797
             21  N  1 YY     -0.00616     0.02774
             22  N  1 ZZ     -0.00104     0.04093
             23  N  1 XY     -0.00393     0.00573
             24  N  1 XZ     -0.00663     0.00972
             25  N  1 YZ      0.00000     0.02129
             26  H  2  S      0.76772     0.51382
             27  H  2  S      0.16389     0.12448
             28  H  2  X      0.01263     0.02853
             29  H  2  Y      0.01610     0.04173
             30  H  2  Z      0.03061     0.04886
             31  H  2  S      0.00224     0.01376
             32  H  2  X     -0.00140     0.07141
             33  H  2  Y      0.01494     0.10293
             34  H  2  Z     -0.00711     0.09540
             35  H  3  S      0.75544     0.51301
             36  H  3  S      0.15826     0.12697
             37  H  3  X      0.03466     0.05369
             38  H  3  Y      0.01360     0.03711
             39  H  3  Z      0.00977     0.02330
             40  H  3  S      0.00150     0.01384
             41  H  3  X     -0.00781     0.10059
             42  H  3  Y      0.01474     0.09617
             43  H  3  Z     -0.00223     0.06631
             44  H  4  S      0.75742     0.50603
             45  H  4  S      0.15784     0.12518
             46  H  4  X      0.01451     0.02902
             47  H  4  Y      0.02275     0.04726
             48  H  4  Z      0.02124     0.03615
             49  H  4  S      0.00182     0.01384
             50  H  4  X     -0.00085     0.07280
             51  H  4  Y      0.01147     0.11069
             52  H  4  Z     -0.00505     0.07920

          ----- MULLIKEN ATOMIC OVERLAP POPULATIONS -----
          (OFF-DIAGONAL ELEMENTS NEED TO BE MULTIPLIED BY 2)

             1           2           3           4

    1    5.9251274
    2    0.3732948   0.7636702
    3    0.3727702  -0.0677418   0.7380033
    4    0.3701235  -0.0696049  -0.0651181   0.7457515

          TOTAL MULLIKEN AND LOWDIN ATOMIC POPULATIONS
       ATOM         MULL.POP.                    LOW.POP.

          TOTAL MULLIKEN AND LOWDIN ATOMIC POPULATIONS
       ATOM         MULL.POP.    CHARGE          LOW.POP.     CHARGE
    1 N             7.041316                     6.907931
    1 N             7.041316   -0.041316         6.907931    0.092069
    2 H             0.999618                     1.040924
    2 H             0.999618    0.000382         1.040924   -0.040924
    3 H             0.977914                     1.030989
    3 H             0.977914    0.022086         1.030989   -0.030989
    4 H             0.981152                     1.020156
    4 H             0.981152    0.018848         1.020156   -0.020156

          MULLIKEN SPHERICAL HARMONIC POPULATIONS
       ATOM           S       P       D      F      G      H      I    TOTAL
    1 N             3.37    3.67    0.00   0.00   0.00   0.00   0.00    7.04
    2 H             0.93    0.07    0.00   0.00   0.00   0.00   0.00    1.00
    3 H             0.92    0.06    0.00   0.00   0.00   0.00   0.00    0.98
    4 H             0.92    0.06    0.00   0.00   0.00   0.00   0.00    0.98

          -------------------------------
          BOND ORDER AND VALENCE ANALYSIS     BOND ORDER THRESHOLD=0.050
          -------------------------------

                   BOND                       BOND                       BOND
  ATOM PAIR DIST  ORDER      ATOM PAIR DIST  ORDER      ATOM PAIR DIST  ORDER
    1   2  0.988  1.034        1   3  1.004  1.026        1   4  1.003  1.023

                       TOTAL       BONDED        FREE
      ATOM            VALENCE     VALENCE     VALENCE
    1 N                 3.083       3.083       0.000
    2 H                 1.008       1.008       0.000
    3 H                 0.998       0.998       0.000
    4 H                 1.000       1.000      -0.000

          ---------------------
          ELECTROSTATIC MOMENTS
          ---------------------

 POINT   1           X           Y           Z (BOHR)    CHARGE
                 3.586297    2.453597    0.657808        0.00 (A.U.)
         DX          DY          DZ         /D/  (DEBYE)
     0.546222    1.666582   -0.301063    1.779465
 ...... END OF PROPERTY EVALUATION ......
 STEP CPU TIME =     0.00 TOTAL CPU TIME =        1.0 (    0.0 MIN)
 TOTAL WALL CLOCK TIME=        1.5 SECONDS, CPU UTILIZATION IS  65.99%
                580000  WORDS OF DYNAMIC MEMORY USED
 EXECUTION OF GAMESS TERMINATED NORMALLY Tue Oct 14 14:08:40 2014
 DDI: 263624 bytes (0.3 MB / 0 MWords) used by master data server.

 ----------------------------------------
 CPU timing information for all processes
 ========================================
 0: 0.946 + 0.39 = 0.986
 ----------------------------------------
 ddikick.x: exited gracefully.
----- accounting info -----
Files used on the master node archvm were:
-rw-r--r-- 1 ben users     387 Oct 14 14:08 /scratch/amo.F05
-rw-r--r-- 1 ben users 1537840 Oct 14 14:08 /scratch/amo.F10
-rw-r--r-- 1 ben users   43341 Oct 14 14:08 /scratch/amo.dat
Tue Oct 14 14:08:43 EDT 2014
0.083u 0.016s 0:08.28 1.0%	0+0k 2048+8io 5pf+0w
