Warning: no access to tty (Bad file descriptor).
Thus no job control in this shell.
This is DQS job amo.94430
----- GAMESS execution script 'rungms' -----
This job is running on host ni.msg.chem.iastate.edu
under operating system Linux at Sun Dec 22 19:39:56 CST 2013
Available scratch disk space (Kbyte units) at beginning of the job is
Filesystem           1K-blocks      Used Available Use% Mounted on
/dev/md127           249208740  16855596 232353144   7% /scr
GAMESS temporary binary files will be written to /scr/federico
GAMESS supplementary output files will be written to /u1/federico/scr
Copying input file amo.inp to your run's scratch directory...
cp amo.inp /scr/federico/amo.F05
unset echo
/u1/mike/gamess/ddikick.x /u1/mike/gamess/gamess.131.x amo -ddi 1 4 ni.msg.chem.iastate.edu:cpus=4 -scr /scr/federico

 Distributed Data Interface kickoff program.
 Initiating 4 compute processes on 1 nodes to run the following command:
 /u1/mike/gamess/gamess.131.x amo 

          ******************************************************
          *         GAMESS VERSION =  1 MAY 2013 (R1)          *
          *             FROM IOWA STATE UNIVERSITY             *
          * M.W.SCHMIDT, K.K.BALDRIDGE, J.A.BOATZ, S.T.ELBERT, *
          *   M.S.GORDON, J.H.JENSEN, S.KOSEKI, N.MATSUNAGA,   *
          *          K.A.NGUYEN, S.J.SU, T.L.WINDUS,           *
          *       TOGETHER WITH M.DUPUIS, J.A.MONTGOMERY       *
          *         J.COMPUT.CHEM.  14, 1347-1363(1993)        *
          **************** 64 BIT INTEL VERSION ****************

  SINCE 1993, STUDENTS AND POSTDOCS WORKING AT IOWA STATE UNIVERSITY
  AND ALSO IN THEIR VARIOUS JOBS AFTER LEAVING ISU HAVE MADE IMPORTANT
  CONTRIBUTIONS TO THE CODE:
     IVANA ADAMOVIC, CHRISTINE AIKENS, YURI ALEXEEV, POOJA ARORA,
     ANDREY ASADCHEV, ROB BELL, PRADIPTA BANDYOPADHYAY, JONATHAN BENTZ,
     BRETT BODE, GALINA CHABAN, WEI CHEN, CHEOL HO CHOI, PAUL DAY,
     ALBERT DEFUSCO, TIM DUDLEY, DMITRI FEDOROV, GRAHAM FLETCHER,
     MARK FREITAG, KURT GLAESEMANN, DAN KEMP, GRANT MERRILL,
     NORIYUKI MINEZAWA, JONATHAN MULLIN, TAKESHI NAGATA,
     SEAN NEDD, HEATHER NETZLOFF, BOSILJKA NJEGIC, RYAN OLSON, MIKE PAK,
     JIM SHOEMAKER, LYUDMILA SLIPCHENKO, SAROM SOK, JIE SONG,
     TETSUYA TAKETSUGU, SIMON WEBB, SOOHAENG YOO, FEDERICO ZAHARIEV

  ADDITIONAL CODE HAS BEEN PROVIDED BY COLLABORATORS IN OTHER GROUPS:
     IOWA STATE UNIVERSITY:
          JOE IVANIC, LAIMUTIS BYTAUTAS, KLAUS RUEDENBERG
     UNIVERSITY OF TOKYO: KIMIHIKO HIRAO, TAKAHITO NAKAJIMA,
          TAKAO TSUNEDA, MUNEAKI KAMIYA, SUSUMU YANAGISAWA,
          KIYOSHI YAGI, MAHITO CHIBA, SEIKEN TOKURA, NAOAKI KAWAKAMI
     UNIVERSITY OF AARHUS: FRANK JENSEN
     UNIVERSITY OF IOWA: VISVALDAS KAIRYS, HUI LI
     NATIONAL INST. OF STANDARDS AND TECHNOLOGY: WALT STEVENS, DAVID GARMER
     UNIVERSITY OF PISA: BENEDETTA MENNUCCI, JACOPO TOMASI
     UNIVERSITY OF MEMPHIS: HENRY KURTZ, PRAKASHAN KORAMBATH
     UNIVERSITY OF ALBERTA: TOBY ZENG, MARIUSZ KLOBUKOWSKI
     UNIVERSITY OF NEW ENGLAND: MARK SPACKMAN
     MIE UNIVERSITY: HIROAKI UMEDA
     MICHIGAN STATE UNIVERSITY:
          KAROL KOWALSKI, MARTA WLOCH, JEFFREY GOUR, JESSE LUTZ,
          WEI LI, PIOTR PIECUCH
     UNIVERSITY OF SILESIA: MONIKA MUSIAL, STANISLAW KUCHARSKI
     FACULTES UNIVERSITAIRES NOTRE-DAME DE LA PAIX:
          OLIVIER QUINET, BENOIT CHAMPAGNE
     UNIVERSITY OF CALIFORNIA - SANTA BARBARA: BERNARD KIRTMAN
     INSTITUTE FOR MOLECULAR SCIENCE:
          KAZUYA ISHIMURA, MICHIO KATOUDA, AND SHIGERU NAGASE
     UNIVERSITY OF NOTRE DAME: DAN CHIPMAN
     KYUSHU UNIVERSITY:
          HARUYUKI NAKANO,
          FENG LONG GU, JACEK KORCHOWIEC, MARCIN MAKOWSKI, AND YURIKO AOKI,
          HIROTOSHI MORI AND EISAKU MIYOSHI
     PENNSYLVANIA STATE UNIVERSITY:
          TZVETELIN IORDANOV, CHET SWALINA, JONATHAN SKONE,
          SHARON HAMMES-SCHIFFER
     WASEDA UNIVERSITY:
          MASATO KOBAYASHI, TOMOKO AKAMA, TSUGUKI TOUMA,
          TAKESHI YOSHIKAWA, YASUHIRO IKABATA, HIROMI NAKAI
     NANJING UNIVERSITY: SHUHUA LI
     UNIVERSITY OF NEBRASKA:
          PEIFENG SU, DEJUN SI, NANDUN THELLAMUREGE, YALI WANG, HUI LI
     UNIVERSITY OF ZURICH:
          ROBERTO PEVERATI, KIM BALDRIDGE
     N. COPERNICUS UNIVERSITY AND JACKSON STATE UNIVERSITY:
          MARIA BARYSZ


 PARALLEL VERSION RUNNING ON     4 PROCESSORS IN     1 NODES.

 EXECUTION OF GAMESS BEGUN Sun Dec 22 19:39:56 2013

            ECHO OF THE FIRST FEW INPUT CARDS -
 INPUT CARD> $CONTRL ispher=1 scftyp=rhf $end                                               
 INPUT CARD> $basis gbasis=accd $end                                                        
 INPUT CARD> $scf dirscf=.t. $end                                                           
 INPUT CARD> $system memory=10000000 $end                                                   
 INPUT CARD> $DATA                                                                          
 INPUT CARD>                                                                                
 INPUT CARD> C1                                                                             
 INPUT CARD> N           7.0   1.8753260893   1.2278971082   0.3595137322                   
 INPUT CARD> H           1.0   1.6237440122   1.5930738032  -0.5233893479                   
 INPUT CARD> H           1.0   2.8687723240   1.3533497046   0.4293906575                   
 INPUT CARD> H           1.0   1.5129248729   1.9281634681   0.9796664950                   
 INPUT CARD> $END                                                                           
   10000000 WORDS OF MEMORY AVAILABLE

     BASIS OPTIONS
     -------------
     GBASIS=ACCD         IGAUSS=       0      POLAR=NONE    
     NDFUNC=       0     NFFUNC=       0     DIFFSP=       F
     NPFUNC=       0      DIFFS=       F     BASNAM=        


     RUN TITLE
     ---------
                                                                                 

 THE POINT GROUP OF THE MOLECULE IS C1      
 THE ORDER OF THE PRINCIPAL AXIS IS     0

 ATOM      ATOMIC                      COORDINATES (BOHR)
           CHARGE         X                   Y                   Z
 N           7.0     3.5438524464        2.3203890756        0.6793824427
 H           1.0     3.0684312573        3.0104729663       -0.9890624524
 H           1.0     5.4211936135        2.5574601073        0.8114306844
 H           1.0     2.8590134498        3.6437006142        1.8513012349

          INTERNUCLEAR DISTANCES (ANGS.)
          ------------------------------

                1 N          2 H          3 H          4 H     

   1 N       0.0000000    0.9880108 *  1.0037712 *  1.0031436 *
   2 H       0.9880108 *  0.0000000    1.5859864 *  1.5439374 *
   3 H       1.0037712 *  1.5859864 *  0.0000000    1.5721122 *
   4 H       1.0031436 *  1.5439374 *  1.5721122 *  0.0000000  

  * ... LESS THAN  3.000


     ATOMIC BASIS SET
     ----------------
 THE CONTRACTED PRIMITIVE FUNCTIONS HAVE BEEN UNNORMALIZED
 THE CONTRACTED BASIS FUNCTIONS ARE NOW NORMALIZED TO UNITY

  SHELL TYPE  PRIMITIVE        EXPONENT          CONTRACTION COEFFICIENT(S)

 N         

      1   S       1          9046.0000000    0.000699617413
      1   S       2          1357.0000000    0.005386054630
      1   S       3           309.3000000    0.027391021189
      1   S       4            87.7300000    0.103150591982
      1   S       5            28.5600000    0.278570663317
      1   S       6            10.2100000    0.448294849454
      1   S       7             3.8380000    0.278085928395
      1   S       8             0.7466000    0.015431561233

      2   S       9          9046.0000000   -0.000304990096
      2   S      10          1357.0000000   -0.002408026379
      2   S      11           309.3000000   -0.011944448725
      2   S      12            87.7300000   -0.048925992909
      2   S      13            28.5600000   -0.134472724725
      2   S      14            10.2100000   -0.315112577700
      2   S      15             3.8380000   -0.242857832550
      2   S      16             0.7466000    1.094382206854

      3   S      17             0.2248000    1.000000000000

      4   P      18            13.5500000    0.058905676772
      4   P      19             2.9170000    0.320461106714
      4   P      20             0.7973000    0.753042061792

      5   P      21             0.2185000    1.000000000000

      6   D      22             0.8170000    1.000000000000

      7   S      23             0.0612400    1.000000000000

      8   P      24             0.0561100    1.000000000000

      9   D      25             0.2300000    1.000000000000

 H         

     10   S      26            13.0100000    0.033498726390
     10   S      27             1.9620000    0.234800801174
     10   S      28             0.4446000    0.813682957883

     11   S      29             0.1220000    1.000000000000

     12   P      30             0.7270000    1.000000000000

     13   S      31             0.0297400    1.000000000000

     14   P      32             0.1410000    1.000000000000

 H         

     15   S      33            13.0100000    0.033498726390
     15   S      34             1.9620000    0.234800801174
     15   S      35             0.4446000    0.813682957883

     16   S      36             0.1220000    1.000000000000

     17   P      37             0.7270000    1.000000000000

     18   S      38             0.0297400    1.000000000000

     19   P      39             0.1410000    1.000000000000

 H         

     20   S      40            13.0100000    0.033498726390
     20   S      41             1.9620000    0.234800801174
     20   S      42             0.4446000    0.813682957883

     21   S      43             0.1220000    1.000000000000

     22   P      44             0.7270000    1.000000000000

     23   S      45             0.0297400    1.000000000000

     24   P      46             0.1410000    1.000000000000

 TOTAL NUMBER OF BASIS SET SHELLS             =   24
 NUMBER OF CARTESIAN GAUSSIAN BASIS FUNCTIONS =   52
 NOTE: THIS RUN WILL RESTRICT THE MO VARIATION SPACE TO SPHERICAL HARMONICS.
 THE NUMBER OF ORBITALS KEPT IN THE VARIATIONAL SPACE WILL BE PRINTED LATER.
 NUMBER OF ELECTRONS                          =   10
 CHARGE OF MOLECULE                           =    0
 SPIN MULTIPLICITY                            =    1
 NUMBER OF OCCUPIED ORBITALS (ALPHA)          =    5
 NUMBER OF OCCUPIED ORBITALS (BETA )          =    5
 TOTAL NUMBER OF ATOMS                        =    4
 THE NUCLEAR REPULSION ENERGY IS       12.1451530544

     $CONTRL OPTIONS
     ---------------
 SCFTYP=RHF          RUNTYP=ENERGY       EXETYP=RUN     
 MPLEVL=       0     CITYP =NONE         CCTYP =NONE         VBTYP =NONE    
 DFTTYP=NONE         TDDFT =NONE    
 MULT  =       1     ICHARG=       0     NZVAR =       0     COORD =UNIQUE  
 PP    =NONE         RELWFN=NONE         LOCAL =NONE         NUMGRD=       F
 ISPHER=       1     NOSYM =       0     MAXIT =      30     UNITS =ANGS    
 PLTORB=       F     MOLPLT=       F     AIMPAC=       F     FRIEND=        
 NPRINT=       7     IREST =       0     GEOM  =INPUT   
 NORMF =       0     NORMP =       0     ITOL  =      20     ICUT  =       9
 INTTYP=BEST         GRDTYP=BEST         QMTTOL= 1.0E-06

     $SYSTEM OPTIONS
     ---------------
  REPLICATED MEMORY=    10000000 WORDS (ON EVERY NODE).
 DISTRIBUTED MEMDDI=           0 MILLION WORDS IN AGGREGATE,
 MEMDDI DISTRIBUTED OVER   4 PROCESSORS IS           0 WORDS/PROCESSOR.
 TOTAL MEMORY REQUESTED ON EACH PROCESSOR=    10000000 WORDS.
 TIMLIM=      525600.00 MINUTES, OR     365.0 DAYS.
 PARALL= T  BALTYP=  DLB     KDIAG=    0  COREFL= F
 MXSEQ2=     300 MXSEQ3=     150

          ----------------
          PROPERTIES INPUT
          ----------------

     MOMENTS            FIELD           POTENTIAL          DENSITY
 IEMOM =       1   IEFLD =       0   IEPOT =       0   IEDEN =       0
 WHERE =COMASS     WHERE =NUCLEI     WHERE =NUCLEI     WHERE =NUCLEI  
 OUTPUT=BOTH       OUTPUT=BOTH       OUTPUT=BOTH       OUTPUT=BOTH    
 IEMINT=       0   IEFINT=       0                     IEDINT=       0
                                                       MORB  =       0
          EXTRAPOLATION IN EFFECT
          SOSCF IN EFFECT
 ORBITAL PRINTING OPTION: NPREO=     1    52     2     1

     -------------------------------
     INTEGRAL TRANSFORMATION OPTIONS
     -------------------------------
     NWORD  =            0
     CUTOFF = 1.0E-09     MPTRAN =       0
     DIRTRF =       T     AOINTS =DUP     

          ----------------------
          INTEGRAL INPUT OPTIONS
          ----------------------
 NOPK  =       1 NORDER=       0 SCHWRZ=       T

     ------------------------------------------
     THE POINT GROUP IS C1 , NAXIS= 0, ORDER= 1
     ------------------------------------------

 -- VARIATIONAL SPACE WILL BE RESTRICTED TO PURE SPHERICAL HARMONICS ONLY --
 AFTER EXCLUDING CONTAMINANT COMBINATIONS FROM THE CARTESIAN GAUSSIAN BASIS
 SET, THE NUMBER OF SPHERICAL HARMONICS KEPT IN THE VARIATION SPACE IS   50

     DIMENSIONS OF THE SYMMETRY SUBSPACES ARE
 A   =   50

 ..... DONE SETTING UP THE RUN .....
 CPU     0: STEP CPU TIME=     0.01 TOTAL CPU TIME=        0.0 (    0.0 MIN)
 TOTAL WALL CLOCK TIME=        0.0 SECONDS, CPU UTILIZATION IS  50.00%

          ********************
          1 ELECTRON INTEGRALS
          ********************
 ...... END OF ONE-ELECTRON INTEGRALS ......
 CPU     0: STEP CPU TIME=     0.00 TOTAL CPU TIME=        0.0 (    0.0 MIN)
 TOTAL WALL CLOCK TIME=        0.0 SECONDS, CPU UTILIZATION IS  33.33%

          -------------
          GUESS OPTIONS
          -------------
          GUESS =HUCKEL            NORB  =       0          NORDER=       0
          MIX   =       F          PRTMO =       F          PUNMO =       F
          TOLZ  = 1.0E-08          TOLE  = 1.0E-05
          SYMDEN=       F          PURIFY=       F

 INITIAL GUESS ORBITALS GENERATED BY HUCKEL   ROUTINE.
 HUCKEL GUESS REQUIRES     22824 WORDS.

 STATISTICS FOR GENERATION OF SYMMETRY ORBITAL -Q- MATRIX
 NUMBER OF CARTESIAN ATOMIC ORBITALS=         52
 NUMBER OF SPHERICAL CONTAMINANTS DROPPED=     2
 NUMBER OF LINEARLY DEPENDENT MOS DROPPED=     0
 TOTAL NUMBER OF MOS IN VARIATION SPACE=      50

 SYMMETRIES FOR INITIAL GUESS ORBITALS FOLLOW.   BOTH SET(S).
     5 ORBITALS ARE OCCUPIED (    1 CORE ORBITALS).
     2=A        3=A        4=A        5=A        6=A        7=A        8=A   
     9=A       10=A       11=A       12=A       13=A       14=A       15=A   
 ...... END OF INITIAL ORBITAL SELECTION ......
 CPU     0: STEP CPU TIME=     0.00 TOTAL CPU TIME=        0.0 (    0.0 MIN)
 TOTAL WALL CLOCK TIME=        0.0 SECONDS, CPU UTILIZATION IS  33.33%

                    ----------------------
                    AO INTEGRAL TECHNOLOGY
                    ----------------------
     S,P,L SHELL ROTATED AXIS INTEGRALS, REPROGRAMMED BY
        KAZUYA ISHIMURA (IMS) AND JOSE SIERRA (SYNSTAR).
     S,P,D,L SHELL ROTATED AXIS INTEGRALS PROGRAMMED BY
        KAZUYA ISHIMURA (INSTITUTE FOR MOLECULAR SCIENCE).
     S,P,D,F,G SHELL TO TOTAL QUARTET ANGULAR MOMENTUM SUM 5,
        ERIC PROGRAM BY GRAHAM FLETCHER (ELORET AND NASA ADVANCED
        SUPERCOMPUTING DIVISION, AMES RESEARCH CENTER).
     S,P,D,F,G,L SHELL GENERAL RYS QUADRATURE PROGRAMMED BY
        MICHEL DUPUIS (PACIFIC NORTHWEST NATIONAL LABORATORY).

          --------------------
          2 ELECTRON INTEGRALS
          --------------------

 DIRECT SCF METHOD SKIPS INTEGRAL STORAGE ON DISK.
 DIRECT TRANSFORMATION SKIPS AO INTEGRAL STORAGE ON DISK.
  ...... END OF TWO-ELECTRON INTEGRALS .....
 CPU     0: STEP CPU TIME=     0.02 TOTAL CPU TIME=        0.0 (    0.0 MIN)
 TOTAL WALL CLOCK TIME=        0.1 SECONDS, CPU UTILIZATION IS  60.00%

          --------------------------
                 RHF SCF CALCULATION
          --------------------------

     NUCLEAR ENERGY =        12.1451530544
     MAXIT =   30     NPUNCH=    2
     EXTRAP=T  DAMP=F  SHIFT=F  RSTRCT=F  DIIS=F  DEM=F  SOSCF=T
     DENSITY MATRIX CONV=  2.00E-05
     SOSCF WILL OPTIMIZE     225 ORBITAL ROTATIONS, SOGTOL=   0.250
     MEMORY REQUIRED FOR RHF ITERS=     66552 WORDS.

 DIRECT SCF CALCULATION, SCHWRZ=T   FDIFF=T,  DIRTHR=  0.00E+00 NITDIR=10
 SCHWARZ INEQUALITY OVERHEAD:      1378 INTEGRALS, T=        0.00

                                                                                   NONZERO     BLOCKS
 ITER EX DEM     TOTAL ENERGY        E CHANGE  DENSITY CHANGE     ORB. GRAD      INTEGRALS    SKIPPED
   1  0  0      -55.9871138446   -55.9871138446   0.201444944   0.000000000         902656          0
          ---------------START SECOND ORDER SCF---------------
   2  1  0      -56.1901763721    -0.2030625275   0.067420034   0.030018111         902656          0
   3  2  0      -56.2022509268    -0.0120745548   0.027722532   0.009607724         902656          0
   4  3  0      -56.2038841980    -0.0016332712   0.007331564   0.003346849         902656          0
   5  4  0      -56.2039640213    -0.0000798233   0.001608255   0.000908702         902656          0
   6  5  0      -56.2039775636    -0.0000135423   0.000429461   0.000183064         902656          0
   7  6  0      -56.2039782362    -0.0000006726   0.000107515   0.000037441         902656          0
   8  7  0      -56.2039782547    -0.0000000185   0.000049886   0.000015044         902656          0
   9  8  0      -56.2039782580    -0.0000000033   0.000003875   0.000001679         902656          0
  10  9  0      -56.2039782580    -0.0000000001   0.000001244   0.000000484         902644          3

          -----------------
          DENSITY CONVERGED
          -----------------
     TIME TO FORM FOCK OPERATORS=       0.3 SECONDS (       0.0 SEC/ITER)
     FOCK TIME ON FIRST ITERATION=       0.0, LAST ITERATION=       0.0
     TIME TO SOLVE SCF EQUATIONS=       0.0 SECONDS (       0.0 SEC/ITER)

 FINAL RHF ENERGY IS      -56.2039782580 AFTER  10 ITERATIONS

          ------------
          EIGENVECTORS
          ------------

                      1          2          3          4          5
                  -15.5492    -1.1577    -0.6352    -0.6235    -0.4393
                     A          A          A          A          A   
    1  N  1  S    1.002148  -0.012715  -0.000043   0.000016  -0.001372
    2  N  1  S    0.003804   0.407768   0.004142  -0.003611  -0.151572
    3  N  1  S   -0.010902   0.239147   0.011548  -0.003768  -0.314111
    4  N  1  X    0.000612   0.022075   0.359460  -0.242455   0.174533
    5  N  1  Y    0.001907   0.076588  -0.074261   0.153946   0.495267
    6  N  1  Z   -0.000383  -0.016290   0.277132   0.360068  -0.096568
    7  N  1  X   -0.000530  -0.004165   0.134882  -0.097017   0.123213
    8  N  1  Y   -0.001497  -0.021801  -0.026801   0.060986   0.347680
    9  N  1  Z    0.000257   0.005621   0.102700   0.142619  -0.067366
   10  N  1 XX    0.000048  -0.000313   0.024212  -0.012294  -0.005918
   11  N  1 YY   -0.000126   0.000138  -0.005488   0.016090   0.013819
   12  N  1 ZZ    0.000079   0.000175  -0.018724  -0.003796  -0.007901
   13  N  1 XY   -0.000096  -0.000272   0.013352  -0.011899   0.008751
   14  N  1 XZ    0.000052   0.000378  -0.003319  -0.006420  -0.001547
   15  N  1 YZ    0.000019  -0.000315   0.015128   0.024488  -0.005152
   16  N  1  S   -0.004447   0.013668   0.002950   0.000491  -0.085639
   17  N  1  X   -0.000146   0.002412  -0.001080  -0.000654   0.022951
   18  N  1  Y   -0.000418   0.004140   0.000294   0.000090   0.063974
   19  N  1  Z    0.000081  -0.000323  -0.001334   0.000212  -0.012275
   20  N  1 XX   -0.000131  -0.001311  -0.022726   0.009048  -0.007423
   21  N  1 YY    0.000266   0.003892   0.001328  -0.007776   0.016091
   22  N  1 ZZ   -0.000135  -0.002581   0.021399  -0.001272  -0.008668
   23  N  1 XY    0.000168   0.004221  -0.000857   0.005396   0.010724
   24  N  1 XZ   -0.000055  -0.002433   0.006034   0.018124  -0.002837
   25  N  1 YZ   -0.000089  -0.000947  -0.005636  -0.014660  -0.005343
   26  H  2  S   -0.000016   0.212540  -0.336883  -0.195638   0.108392
   27  H  2  S    0.003353   0.020661  -0.168212  -0.102091   0.048838
   28  H  2  X   -0.000195   0.011285   0.004131  -0.015388   0.011092
   29  H  2  Y    0.000210  -0.009005   0.011276   0.014718   0.014806
   30  H  2  Z   -0.000627   0.034007  -0.025114  -0.006055   0.010999
   31  H  2  S    0.000376   0.001060  -0.011151  -0.006566   0.005812
   32  H  2  X    0.000312   0.003266  -0.010199  -0.003713   0.006208
   33  H  2  Y   -0.000570   0.001721   0.003962   0.002584   0.013948
   34  H  2  Z    0.001192   0.008613  -0.022473  -0.014023   0.002869
   35  H  3  S    0.000061   0.201996   0.339955  -0.186234   0.112793
   36  H  3  S    0.003324   0.012775   0.167563  -0.093296   0.051867
   37  H  3  X    0.000641  -0.036287  -0.026405   0.012444  -0.009832
   38  H  3  Y    0.000039   0.000400  -0.007486   0.008804   0.018172
   39  H  3  Z    0.000053  -0.003486   0.007879   0.015435  -0.004836
   40  H  3  S    0.000373  -0.000143   0.010521  -0.005576   0.005147
   41  H  3  X   -0.001333  -0.006020  -0.024109   0.012984  -0.000624
   42  H  3  Y   -0.000258   0.003787   0.002576  -0.001469   0.015069
   43  H  3  Z   -0.000068  -0.000563  -0.004646  -0.000347  -0.002933
   44  H  4  S    0.000044   0.205726  -0.005378   0.388602   0.106179
   45  H  4  S    0.003204   0.012824  -0.000348   0.196316   0.046618
   46  H  4  X   -0.000253   0.015530   0.013984   0.007441   0.013084
   47  H  4  Y    0.000414  -0.021507  -0.002442  -0.025882   0.009033
   48  H  4  Z    0.000420  -0.025061   0.011670  -0.015043  -0.014395
   49  H  4  S    0.000364   0.000446   0.000040   0.012003   0.005490
   50  H  4  X    0.000445   0.003878  -0.000738   0.013064   0.007257
   51  H  4  Y   -0.000985  -0.000098  -0.000413  -0.014467   0.012136
   52  H  4  Z   -0.000774  -0.005454  -0.000449  -0.020031  -0.006885

                      6          7          8          9         10
                    0.0355     0.0597     0.0603     0.1484     0.1980
                     A          A          A          A          A   
    1  N  1  S   -0.011519  -0.000136  -0.000111  -0.021761  -0.049855
    2  N  1  S    0.046379  -0.000527   0.000521  -0.049644  -0.234513
    3  N  1  S    0.411443   0.002655   0.006176   0.403393   0.701486
    4  N  1  X    0.012816  -0.053796   0.025115  -0.055340   0.005174
    5  N  1  Y    0.038029   0.012659  -0.019137  -0.159403  -0.017296
    6  N  1  Z   -0.005402  -0.028360  -0.054275   0.029657  -0.003567
    7  N  1  X    0.041234  -0.153112   0.067375   0.029634   0.026070
    8  N  1  Y    0.127203   0.035405  -0.050391   0.073077   0.256088
    9  N  1  Z   -0.021792  -0.081785  -0.147310  -0.017278  -0.042069
   10  N  1 XX   -0.001064  -0.002051   0.000339   0.007010  -0.003988
   11  N  1 YY    0.002187   0.000243  -0.000540  -0.015131   0.010966
   12  N  1 ZZ   -0.001123   0.001808   0.000200   0.008121  -0.006978
   13  N  1 XY    0.001160  -0.000210   0.000334  -0.009562   0.007462
   14  N  1 XZ   -0.000072   0.000280   0.001472   0.002342  -0.000994
   15  N  1 YZ   -0.000831  -0.000357  -0.001086   0.005239  -0.004785
   16  N  1  S    2.158898   0.010436   0.025321   3.628584   5.037075
   17  N  1  X    0.062937  -0.882685   0.393005   0.591250  -0.329047
   18  N  1  Y    0.209588   0.208480  -0.303812   1.759678   0.076024
   19  N  1  Z   -0.031314  -0.476740  -0.870989  -0.341201   0.062839
   20  N  1 XX    0.008064  -0.016030   0.006685  -0.025535   0.034101
   21  N  1 YY   -0.017175   0.008858  -0.014155   0.056901  -0.100000
   22  N  1 ZZ    0.009111   0.007172   0.007470  -0.031367   0.065899
   23  N  1 XY   -0.011014  -0.020596   0.009037   0.034926  -0.076024
   24  N  1 XZ    0.002782   0.000805  -0.007509  -0.007758   0.013068
   25  N  1 YZ    0.006509  -0.012572  -0.023333  -0.020552   0.043943
   26  H  2  S   -0.004381   0.008719   0.007459  -0.016243  -0.007708
   27  H  2  S   -0.426414  -0.379019  -0.306967  -1.054200  -1.153015
   28  H  2  X    0.000762  -0.001604   0.001211  -0.010698  -0.008389
   29  H  2  Y   -0.000413  -0.003158  -0.003899   0.007646   0.008181
   30  H  2  Z    0.001671   0.003250   0.002145  -0.030972  -0.026534
   31  H  2  S   -0.743268  -2.932985  -2.538116  -0.521001  -0.871386
   32  H  2  X   -0.015250   0.016714  -0.060396  -0.102879  -0.041494
   33  H  2  Y    0.040843   0.047508   0.067530  -0.150794   0.304847
   34  H  2  Z   -0.068140  -0.116031  -0.066000  -0.062633  -0.368972
   35  H  3  S   -0.005069  -0.010107   0.003715  -0.013096   0.013325
   36  H  3  S   -0.418562   0.451688  -0.154573  -1.063026  -0.781686
   37  H  3  X   -0.002173   0.004364  -0.001661   0.033366   0.024081
   38  H  3  Y    0.000019   0.003746  -0.001953  -0.000162   0.001125
   39  H  3  Z   -0.000241  -0.001270  -0.001914   0.003098   0.001652
   40  H  3  S   -0.731898   3.582164  -1.310704  -0.496359  -0.432633
   41  H  3  X    0.076406  -0.141038   0.044186   0.063386   0.357689
   42  H  3  Y    0.021563  -0.037679   0.027069  -0.179378   0.191097
   43  H  3  Z    0.003059   0.017771   0.062023   0.051467  -0.008847
   44  H  4  S   -0.004366   0.001964  -0.011163  -0.013258  -0.011177
   45  H  4  S   -0.418064  -0.081569   0.451642  -1.010801  -1.248272
   46  H  4  X    0.000953  -0.001529  -0.000529  -0.014354  -0.012806
   47  H  4  Y   -0.001299  -0.000757   0.006293   0.018949   0.019432
   48  H  4  Z   -0.001314  -0.001418   0.001647   0.022564   0.020443
   49  H  4  S   -0.762818  -0.647073   3.823969  -0.500527  -1.047309
   50  H  4  X   -0.021977   0.040421   0.048628  -0.102274  -0.090785
   51  H  4  Y    0.063882   0.012987  -0.120745  -0.110130   0.447986
   52  H  4  Z    0.041475   0.049692  -0.072165   0.097985   0.214916

                     11         12         13         14         15
                    0.2021     0.2028     0.2962     0.2992     0.3403
                     A          A          A          A          A   
    1  N  1  S   -0.003046   0.004337   0.000500   0.001393   0.002307
    2  N  1  S   -0.013761   0.019907  -0.004337   0.000047  -0.016093
    3  N  1  S    0.051706  -0.054215  -0.017931  -0.033931  -0.067311
    4  N  1  X   -0.035359   0.098603  -0.199381  -0.143450   0.057516
    5  N  1  Y    0.030700  -0.023029   0.091994   0.004769  -0.028071
    6  N  1  Z    0.094533   0.046800   0.140331  -0.210367   0.024643
    7  N  1  X    0.167563  -0.437696  -0.152771  -0.115046   0.061753
    8  N  1  Y   -0.127122   0.085959   0.083139   0.002286   0.019437
    9  N  1  Z   -0.437849  -0.201064   0.112075  -0.174674   0.005874
   10  N  1 XX   -0.003719   0.012458   0.014386   0.017436   0.024689
   11  N  1 YY    0.007541  -0.004694  -0.003262   0.001115   0.007888
   12  N  1 ZZ   -0.003822  -0.007763  -0.011124  -0.018551  -0.032577
   13  N  1 XY   -0.003959   0.005752  -0.001369  -0.008227  -0.047078
   14  N  1 XZ   -0.004392  -0.000744   0.020701  -0.014795   0.003307
   15  N  1 YZ    0.012590   0.003851  -0.008439   0.002211  -0.019341
   16  N  1  S    0.301382  -0.435622  -0.121788  -0.183087  -0.929839
   17  N  1  X    1.085607  -2.875100   0.179038   0.073325   0.529060
   18  N  1  Y   -0.942109   0.719171  -0.100567  -0.005219  -0.204648
   19  N  1  Z   -2.868589  -1.359751  -0.186766   0.193879   0.217078
   20  N  1 XX    0.040261  -0.154389  -0.064743  -0.077633  -0.157803
   21  N  1 YY   -0.081385   0.051659   0.027796  -0.001878  -0.067973
   22  N  1 ZZ    0.041124   0.102730   0.036947   0.079511   0.225776
   23  N  1 XY    0.045178  -0.063418  -0.008326   0.016888   0.299933
   24  N  1 XZ    0.060608   0.009084  -0.075803   0.057239  -0.022409
   25  N  1 YZ   -0.141867  -0.042872   0.038740  -0.029940   0.133996
   26  H  2  S   -0.095889  -0.097639   0.028084  -0.104736   0.015676
   27  H  2  S   -1.959707  -1.873565   0.158450  -0.476148  -0.309628
   28  H  2  X   -0.007169  -0.009551  -0.009313  -0.002306  -0.012151
   29  H  2  Y    0.004074   0.003658   0.001357   0.001141   0.013124
   30  H  2  Z   -0.021905  -0.020419   0.004035  -0.001718   0.019626
   31  H  2  S   -2.593742  -2.610061  -0.311928   1.238969   0.220463
   32  H  2  X   -0.119715  -0.039501  -0.309946   0.103013  -0.635500
   33  H  2  Y    0.221028   0.158688   0.144577  -0.340116   0.754524
   34  H  2  Z   -0.345105  -0.337855  -0.016771   0.699830  -0.178005
   35  H  3  S   -0.039382   0.127994   0.090104   0.075759   0.021435
   36  H  3  S   -0.808554   2.659066   0.455365   0.430270   1.356149
   37  H  3  X    0.010611  -0.035678  -0.002792  -0.002293   0.011970
   38  H  3  Y   -0.001276   0.003424   0.000252  -0.001523  -0.019819
   39  H  3  Z   -0.001493  -0.005410   0.006877  -0.007540  -0.001043
   40  H  3  S   -1.053837   3.551163  -0.948270  -0.752313  -0.174421
   41  H  3  X    0.168334  -0.560580   0.572762   0.542935  -0.593891
   42  H  3  Y    0.062212  -0.149475   0.155872   0.059400  -0.889295
   43  H  3  Z    0.059350  -0.008811   0.242491  -0.226169  -0.081970
   44  H  4  S    0.133270  -0.030589  -0.103275   0.041033   0.015498
   45  H  4  S    2.582106  -0.499181  -0.454289   0.250331   0.064877
   46  H  4  X    0.014553  -0.003995  -0.003340  -0.006144  -0.017630
   47  H  4  Y   -0.016029   0.002719   0.001836  -0.000957   0.002039
   48  H  4  Z   -0.022659   0.003502   0.000101  -0.005710  -0.022081
   49  H  4  S    3.506765  -0.744185   1.275888  -0.442690   0.126286
   50  H  4  X    0.167767   0.013580   0.150951  -0.305963  -0.816545
   51  H  4  Y   -0.407495   0.053530  -0.545733   0.212227   0.395808
   52  H  4  Z   -0.289380   0.080224  -0.461322  -0.021279  -0.432030

                     16         17         18         19         20
                    0.3431     0.3489     0.4648     0.5318     0.5371
                     A          A          A          A          A   
    1  N  1  S   -0.004631  -0.010196  -0.010302  -0.000009   0.001161
    2  N  1  S    0.024428   0.058823   0.040425   0.000318   0.000003
    3  N  1  S    0.136510   0.336064   0.403981   0.004732  -0.040700
    4  N  1  X   -0.012145   0.019780   0.088353  -0.017006   0.126335
    5  N  1  Y    0.036507   0.021952   0.260304  -0.001400  -0.037900
    6  N  1  Z    0.062339  -0.024345  -0.051949  -0.034609   0.029817
    7  N  1  X   -0.046212  -0.058279   0.396190  -0.088146   0.813693
    8  N  1  Y   -0.045352  -0.203716   1.185986  -0.013988  -0.240293
    9  N  1  Z    0.076238   0.017913  -0.241245  -0.196156   0.183254
   10  N  1 XX   -0.000462  -0.009805   0.005534  -0.008937   0.047178
   11  N  1 YY    0.004939   0.039766  -0.011114  -0.001489  -0.017308
   12  N  1 ZZ   -0.004477  -0.029960   0.005580   0.010425  -0.029870
   13  N  1 XY    0.002266   0.011070  -0.008653  -0.001539   0.023260
   14  N  1 XZ   -0.056705   0.019490   0.004224   0.003758   0.001423
   15  N  1 YZ   -0.019022  -0.010894   0.002963  -0.011112   0.003138
   16  N  1  S    1.479027   3.257961   5.852335   0.004438  -0.049631
   17  N  1  X   -0.089818   0.200316   0.592954  -0.312866   2.416339
   18  N  1  Y    0.246244   0.071187   1.793127  -0.022861  -0.722997
   19  N  1  Z    0.545536  -0.176948  -0.364571  -0.650197   0.559322
   20  N  1 XX   -0.005131   0.035881  -0.054851   0.008212   0.030713
   21  N  1 YY   -0.007906  -0.192701   0.103681  -0.001788  -0.010976
   22  N  1 ZZ    0.013037   0.156820  -0.048830  -0.006424  -0.019738
   23  N  1 XY   -0.000087  -0.034669   0.069448  -0.001360   0.014056
   24  N  1 XZ    0.370073  -0.130224  -0.025744   0.005076  -0.001481
   25  N  1 YZ    0.114524   0.049526  -0.038052  -0.002134  -0.002585
   26  H  2  S   -0.030237  -0.053546  -0.037547   0.016724  -0.026271
   27  H  2  S   -1.391347  -1.200456  -2.243211  -0.089047   0.162775
   28  H  2  X    0.023389  -0.008230  -0.013140  -0.031569   0.008340
   29  H  2  Y    0.006832   0.013463   0.002784   0.008868   0.004011
   30  H  2  Z    0.003598  -0.003320  -0.030032  -0.001024   0.025134
   31  H  2  S    0.100131  -0.214361  -0.487494  -0.503821   1.019488
   32  H  2  X    0.708106  -0.096051  -0.295709   1.628419  -1.220119
   33  H  2  Y    0.603167   0.410693  -0.697580  -0.238539  -0.374891
   34  H  2  Z   -0.512794   0.590989   0.163096  -0.294897  -0.253020
   35  H  3  S   -0.026703  -0.048505  -0.036261  -0.009029   0.057663
   36  H  3  S   -0.715835  -1.014963  -2.124873   0.010369  -0.161378
   37  H  3  X    0.002941   0.009111   0.030153  -0.004194   0.044080
   38  H  3  Y    0.000106   0.006706  -0.005742  -0.003307  -0.019177
   39  H  3  Z   -0.027036   0.007503   0.004859  -0.031495   0.003568
   40  H  3  S   -0.075854  -0.284778  -0.455813   0.260844  -1.769453
   41  H  3  X    0.073668  -0.453414  -0.256296   0.001957  -0.944289
   42  H  3  Y    0.077247   0.338569  -0.722814   0.179198   1.572792
   43  H  3  Z   -0.995987   0.230839   0.181309   1.867585  -0.213471
   44  H  4  S   -0.021564  -0.057001  -0.039486  -0.008270  -0.024652
   45  H  4  S    0.309201  -1.795643  -2.226201   0.075713   0.058218
   46  H  4  X   -0.018874   0.004770  -0.015021   0.026983   0.017105
   47  H  4  Y    0.004421   0.012555   0.012975  -0.005975  -0.006409
   48  H  4  Z    0.008790  -0.007129   0.022318   0.013266  -0.012277
   49  H  4  S   -0.295466  -0.089346  -0.454141   0.240356   0.768959
   50  H  4  X   -0.206293   0.324990  -0.256989  -1.131536  -1.623757
   51  H  4  Y   -0.789218   0.689646  -0.656289   0.087138  -0.080805
   52  H  4  Z   -0.558427  -0.425992   0.139663  -0.613827  -0.339165

                     21         22         23         24         25
                    0.5394     0.6188     0.6395     0.6406     0.7077
                     A          A          A          A          A   
    1  N  1  S   -0.000749  -0.155093   0.000447  -0.009062   0.000564
    2  N  1  S   -0.001143  -0.029471  -0.001171  -0.001855  -0.002649
    3  N  1  S    0.006519   5.229658   0.024341   0.362356  -0.035670
    4  N  1  X   -0.020833   0.030118   0.028593  -0.133143  -0.160669
    5  N  1  Y    0.033866   0.056734  -0.033955   0.038498   0.090734
    6  N  1  Z    0.125023  -0.003327  -0.121917  -0.035824   0.196964
    7  N  1  X   -0.147233   0.316919   0.573888  -2.635226  -0.253624
    8  N  1  Y    0.240528   0.462400  -0.720249   0.775714   0.151216
    9  N  1  Z    0.861863  -0.049893  -2.644492  -0.785799   0.399040
   10  N  1 XX   -0.002384   0.004725   0.002555  -0.030676   0.014081
   11  N  1 YY    0.018496  -0.008033  -0.015937   0.012183  -0.010297
   12  N  1 ZZ   -0.016112   0.003308   0.013382   0.018493  -0.003783
   13  N  1 XY   -0.009490  -0.003537   0.006911  -0.021570   0.007439
   14  N  1 XZ   -0.018151   0.002412   0.007278   0.002291   0.018347
   15  N  1 YZ    0.043814   0.001559  -0.032829  -0.006986  -0.016962
   16  N  1  S    0.015225   4.370978   0.032764   0.200512  -0.012836
   17  N  1  X   -0.420436   0.139658   0.287442  -1.400768   0.112533
   18  N  1  Y    0.628410   0.066370  -0.355129   0.378699  -0.058477
   19  N  1  Z    2.402737  -0.012437  -1.365131  -0.422272  -0.075269
   20  N  1 XX   -0.002545   0.009754   0.035989  -0.475818   0.481816
   21  N  1 YY    0.025791   0.007858  -0.186097   0.133933  -0.424695
   22  N  1 ZZ   -0.023245  -0.017612   0.150109   0.341885  -0.057121
   23  N  1 XY   -0.013971   0.018626   0.115149  -0.167614   0.323677
   24  N  1 XZ   -0.029275   0.003550   0.260731  -0.007944   0.474395
   25  N  1 YZ    0.042021  -0.012102  -0.421555  -0.031334  -0.666659
   26  H  2  S   -0.047192  -0.069965  -0.027854  -0.036100   0.148204
   27  H  2  S    0.165488  -2.117087 -10.133038  -7.632647   0.146475
   28  H  2  X    0.010429  -0.007024  -0.023757   0.022615  -0.027463
   29  H  2  Y    0.005290   0.004267   0.049803   0.019871   0.031701
   30  H  2  Z    0.036401  -0.013794  -0.029381  -0.043594  -0.016567
   31  H  2  S    1.451018  -0.429857  -0.994481  -0.832584   0.174279
   32  H  2  X    0.254862  -0.229962  -0.844829  -1.936133   0.395921
   33  H  2  Y   -1.407052   0.651737   0.300694   0.871905  -0.454804
   34  H  2  Z   -1.248918  -1.185103  -4.424819  -2.827810   0.271590
   35  H  3  S   -0.010404  -0.085142  -0.004380   0.043290   0.188338
   36  H  3  S   -0.054982  -2.983200  -1.759444  11.921845  -0.306312
   37  H  3  X   -0.003844   0.018453   0.004134  -0.059120   0.044742
   38  H  3  Y    0.000590   0.000860   0.013678  -0.034873   0.024401
   39  H  3  Z   -0.006314   0.002399   0.036820   0.006004   0.023717
   40  H  3  S    0.165288  -0.570857  -0.163404   1.268930   0.158506
   41  H  3  X    0.196381   1.725554   0.862845  -5.235501  -0.383093
   42  H  3  Y   -0.368790   0.358296  -0.355566   0.586634  -0.361303
   43  H  3  Z   -0.843612   0.079381  -1.074909  -0.727338  -0.308787
   44  H  4  S    0.054679  -0.080597   0.039335  -0.028960  -0.318568
   45  H  4  S   -0.137127  -2.034441  11.826000  -4.669599   0.181426
   46  H  4  X   -0.018723  -0.007247   0.019938   0.025243   0.015729
   47  H  4  Y    0.011287   0.006914  -0.065017   0.019303  -0.072245
   48  H  4  Z    0.038946   0.008313  -0.013605   0.032816  -0.041200
   49  H  4  S   -1.618517  -0.416075   1.156613  -0.509356  -0.325169
   50  H  4  X    0.289232  -0.377171   2.061955  -1.884983  -0.089637
   51  H  4  Y    0.753286   1.075249  -2.566745   1.303834   0.922499
   52  H  4  Z   -1.688270   0.780041  -4.117141   0.802000   0.408668

                     26         27         28         29         30
                    0.7166     0.8515     0.9169     0.9193     1.1639
                     A          A          A          A          A   
    1  N  1  S    0.005356  -0.022479   0.004720  -0.006123  -0.206735
    2  N  1  S    0.004579  -0.017645   0.015618  -0.019089  -0.564270
    3  N  1  S   -0.159985   0.761437  -0.008050   0.044318   2.079464
    4  N  1  X    0.200784  -0.039013  -0.041419   0.005474  -0.038013
    5  N  1  Y   -0.032321  -0.114155   0.012471  -0.012330  -0.107914
    6  N  1  Z    0.181221   0.025074  -0.021337  -0.028098  -0.068483
    7  N  1  X    0.341283  -0.076366  -0.196100   0.075415   0.120673
    8  N  1  Y   -0.056425  -0.286337   0.041471  -0.057092   0.432928
    9  N  1  Z    0.372064   0.074871  -0.082885  -0.203091   0.227499
   10  N  1 XX   -0.023700  -0.002855   0.005236   0.003929   0.046672
   11  N  1 YY    0.001887   0.008917   0.006574  -0.008395  -0.078039
   12  N  1 ZZ    0.021813  -0.006062  -0.011810   0.004466   0.031367
   13  N  1 XY   -0.000458   0.005815  -0.010221  -0.000695  -0.062051
   14  N  1 XZ    0.007060   0.000451  -0.000966  -0.014204   0.003971
   15  N  1 YZ   -0.007049  -0.003680  -0.006227  -0.006023   0.052695
   16  N  1  S   -0.179679   2.961178  -0.105812   0.140195   3.492723
   17  N  1  X   -0.151374  -0.085331   0.350389  -0.131197   0.286739
   18  N  1  Y    0.022103  -0.121844  -0.124304   0.168125   0.824769
   19  N  1  Z   -0.091118   0.057603   0.157135   0.391560  -0.094675
   20  N  1 XX   -0.845347   0.496901  -0.415522  -0.134191  -0.234056
   21  N  1 YY    0.079337  -1.158889  -0.534069   0.460993   0.326774
   22  N  1 ZZ    0.766010   0.661989   0.949591  -0.326802  -0.092718
   23  N  1 XY   -0.169967  -0.755153   1.302718  -0.052565   0.298801
   24  N  1 XZ    0.217462   0.161124  -0.000826   1.588107  -0.073374
   25  N  1 YZ   -0.385117   0.426361   0.709492   0.571022  -0.199236
   26  H  2  S    0.275568   0.111141   0.002840   0.050537   0.657573
   27  H  2  S    0.160767  -1.228238  -1.762077  -2.012344  -1.540188
   28  H  2  X    0.002036  -0.005347  -0.002336  -0.002714  -0.087585
   29  H  2  Y    0.038066   0.014865  -0.004974  -0.003091   0.005871
   30  H  2  Z   -0.062106  -0.024656   0.013641  -0.008904  -0.239702
   31  H  2  S    0.282052  -0.199557   0.180611   0.212216  -0.218670
   32  H  2  X   -0.088371   0.337461  -0.813760   0.690703  -0.159922
   33  H  2  Y   -0.585103   0.573513   0.947597   0.303456  -0.089589
   34  H  2  Z    0.877808   0.181566  -0.410791  -1.123897   0.013971
   35  H  3  S   -0.266047   0.111641  -0.051929   0.036947   0.747706
   36  H  3  S    0.249940  -1.454115   2.561652  -0.802089  -1.939469
   37  H  3  X   -0.071050   0.029599   0.000230   0.010593   0.302572
   38  H  3  Y   -0.022639   0.006937   0.007771  -0.002596  -0.043010
   39  H  3  Z    0.013309   0.001120  -0.003624  -0.000393   0.013354
   40  H  3  S   -0.205347  -0.182207  -0.242460   0.079824  -0.214939
   41  H  3  X    0.717864   0.031812  -1.164606   0.443469   0.156568
   42  H  3  Y    0.354927   0.637959  -0.658779  -0.108971  -0.100223
   43  H  3  Z   -0.243449  -0.141377  -0.278732  -1.158183   0.074535
   44  H  4  S   -0.031238   0.109269  -0.007700  -0.018908   0.773205
   45  H  4  S   -0.108145  -1.326158  -0.637811   2.580223  -2.735287
   46  H  4  X    0.025689  -0.008565  -0.001476  -0.001521  -0.168333
   47  H  4  Y   -0.010071   0.022497  -0.004292   0.008248   0.172319
   48  H  4  Z    0.015519   0.015184  -0.008221   0.002551   0.237781
   49  H  4  S   -0.033267  -0.237518   0.076361  -0.311447  -0.203179
   50  H  4  X   -0.337467   0.351151  -0.982645  -0.034210  -0.267803
   51  H  4  Y    0.142243   0.467745   0.503164  -1.202697   0.265070
   52  H  4  Z   -0.151208  -0.314117  -0.570667  -0.790859   0.309491

                     31         32         33         34         35
                    1.2051     1.2134     1.3566     1.7965     1.8013
                     A          A          A          A          A   
    1  N  1  S   -0.017677   0.019747   0.031670   0.000542  -0.005767
    2  N  1  S   -0.054240   0.054834   0.152422   0.000888  -0.011892
    3  N  1  S    0.136633  -0.299517   0.687073  -0.035474   0.065207
    4  N  1  X   -0.430671  -0.431526  -0.343102   0.024450   0.497023
    5  N  1  Y    0.246503   0.083876  -0.925559  -0.121127  -0.160829
    6  N  1  Z    0.424485  -0.479152   0.184608  -0.521701   0.041062
    7  N  1  X    1.428845   1.516871   0.890891  -0.134994  -3.204122
    8  N  1  Y   -0.785698  -0.300180   2.332928   0.715492   1.026604
    9  N  1  Z   -1.353967   1.624362  -0.479558   3.382103  -0.310575
   10  N  1 XX    0.134615   0.178733   0.003045  -0.030426   0.224258
   11  N  1 YY   -0.114697   0.002813   0.007841  -0.071360  -0.066635
   12  N  1 ZZ   -0.019918  -0.181545  -0.010886   0.101786  -0.157623
   13  N  1 XY    0.082385   0.048351   0.008426   0.041524   0.074660
   14  N  1 XZ    0.099864  -0.062149   0.001834   0.125100   0.023777
   15  N  1 YZ   -0.154039   0.112722  -0.006521  -0.183868  -0.027211
   16  N  1  S    0.178125  -0.439778   2.968239  -0.019952   0.018833
   17  N  1  X    0.358815   0.365070   0.263815  -0.044286  -1.460734
   18  N  1  Y   -0.112631  -0.152052   0.695449   0.312754   0.474670
   19  N  1  Z   -0.306769   0.408966  -0.142392   1.514171  -0.160751
   20  N  1 XX   -0.471604  -0.613040  -0.168276   0.186971  -1.388373
   21  N  1 YY    0.341302  -0.028712   0.330289   0.412605   0.358408
   22  N  1 ZZ    0.130302   0.641752  -0.162013  -0.599576   1.029965
   23  N  1 XY   -0.215572  -0.097616   0.189859  -0.286088  -0.327262
   24  N  1 XZ   -0.478268   0.256590  -0.045038  -0.895833  -0.204418
   25  N  1 YZ    0.485569  -0.306084  -0.120195   1.047573   0.220439
   26  H  2  S    0.247545  -0.515852  -0.249800   1.117398  -0.561142
   27  H  2  S   -1.463959   4.344834  -1.130120   5.018644  -2.462551
   28  H  2  X   -0.159073   0.047411  -0.041299   0.003955  -0.394387
   29  H  2  Y    0.132683  -0.180334   0.024418   0.245982   0.057533
   30  H  2  Z   -0.091804   0.422741  -0.098494   0.212195   0.075657
   31  H  2  S    0.008229   0.103497  -0.242365   0.907214  -0.470578
   32  H  2  X   -0.277214   0.300227  -0.264312   0.293783  -0.076162
   33  H  2  Y    0.247158  -0.614482  -0.573913  -0.777671   0.360219
   34  H  2  Z   -0.392515   1.419209  -0.000350   1.247115  -0.632997
   35  H  3  S    0.403216   0.309574  -0.210282  -0.049768   1.228402
   36  H  3  S   -2.746915  -3.156743  -1.371386  -0.204738   5.354725
   37  H  3  X    0.283219   0.305986   0.126367  -0.032921  -0.168158
   38  H  3  Y    0.092459   0.063189   0.005239   0.089244   0.287635
   39  H  3  Z    0.122594  -0.083374   0.011350   0.409999  -0.072223
   40  H  3  S   -0.036648  -0.052834  -0.253370  -0.051354   0.999143
   41  H  3  X    0.982145   1.262443   0.039461   0.062534  -1.537087
   42  H  3  Y    0.204594   0.238994  -0.590413  -0.002459  -0.480298
   43  H  3  Z    0.203857  -0.073323   0.148235  -0.070218  -0.068981
   44  H  4  S   -0.433432   0.020591  -0.239445  -1.069520  -0.666864
   45  H  4  S    3.827056  -0.424488  -0.994636  -4.770888  -2.944909
   46  H  4  X    0.093828  -0.126153  -0.046404   0.012244  -0.402888
   47  H  4  Y   -0.322106   0.065873   0.062164  -0.120292   0.004535
   48  H  4  Z   -0.241431  -0.085232   0.064702   0.326209  -0.122574
   49  H  4  S    0.003708   0.036296  -0.220513  -0.851587  -0.535507
   50  H  4  X    0.470882  -0.138720  -0.242355  -0.426172  -0.185771
   51  H  4  Y   -1.082046   0.181243  -0.530396   1.171184   0.717869
   52  H  4  Z   -0.901065   0.074760   0.178345   0.755339   0.516399

                     36         37         38         39         40
                    1.9795     2.0433     2.0525     2.1233     2.3222
                     A          A          A          A          A   
    1  N  1  S   -0.000230  -0.065776   0.072035  -0.550218   0.062696
    2  N  1  S   -0.000771  -0.134338   0.146492  -1.090712   0.129328
    3  N  1  S   -0.005706   0.558682  -0.550903   4.447887  -0.410234
    4  N  1  X   -0.012633   0.059466   0.002268   0.021176   0.022257
    5  N  1  Y   -0.001949  -0.017700  -0.006619   0.062759   0.047545
    6  N  1  Z   -0.035764   0.008996   0.030989  -0.024382   0.211645
    7  N  1  X    0.108514  -1.013148   0.031293   0.127234   0.569074
    8  N  1  Y    0.013790   0.235584  -0.118983  -0.544079   0.116056
    9  N  1  Z    0.258849  -0.112195  -0.939423  -0.090631   2.273903
   10  N  1 XX   -0.004303   0.065526   0.048042  -0.128210  -0.120077
   11  N  1 YY   -0.005671   0.105947  -0.051464   0.223616  -0.091644
   12  N  1 ZZ    0.009975  -0.171474   0.003422  -0.095406   0.211721
   13  N  1 XY    0.013897  -0.160840  -0.071642   0.144419  -0.080018
   14  N  1 XZ    0.011167   0.068476  -0.244040  -0.081901  -0.024774
   15  N  1 YZ    0.003400  -0.089262  -0.073307  -0.063481  -0.492627
   16  N  1  S   -0.001766   0.245560  -0.258843   2.253786  -0.140052
   17  N  1  X   -0.015542   0.144602  -0.010898   0.037728   0.117167
   18  N  1  Y    0.007320  -0.038773   0.019449   0.091545   0.029436
   19  N  1  Z    0.008525   0.019603   0.152979  -0.012626   0.435685
   20  N  1 XX    0.054561  -0.603835  -0.259345   0.572351   0.238524
   21  N  1 YY    0.028989  -0.460403   0.174118  -0.958131   0.188556
   22  N  1 ZZ   -0.083550   1.064238   0.085227   0.385780  -0.427080
   23  N  1 XY   -0.072869   0.781127   0.404230  -0.619472   0.240171
   24  N  1 XZ   -0.080581  -0.389520   1.374224   0.404048   0.192601
   25  N  1 YZ   -0.003875   0.497622   0.198943   0.259253   1.124445
   26  H  2  S    0.092404  -0.134800  -0.270421  -0.280372   1.039524
   27  H  2  S    0.592728  -1.990357  -3.167406  -1.842342   3.167326
   28  H  2  X   -0.631557  -0.128777   0.449423   0.322037   0.140224
   29  H  2  Y    0.143179   0.624120   0.586586   0.648620  -0.387064
   30  H  2  Z    0.227323   0.261851   0.087516  -0.010566   0.150489
   31  H  2  S   -0.006669   0.039793   0.151382  -0.164697   0.138806
   32  H  2  X    0.638804  -0.914005  -0.080227   0.145077   0.433909
   33  H  2  Y   -0.271278   0.480605  -0.002343   0.453105   0.169763
   34  H  2  Z    0.002254  -0.537849  -1.471638  -0.596957   0.865779
   35  H  3  S   -0.040388   0.315001   0.014468  -0.381880  -0.322593
   36  H  3  S   -0.320514   3.606908   0.356690  -2.274104  -0.940591
   37  H  3  X    0.043919   0.069457   0.049036   0.109456   0.151530
   38  H  3  Y   -0.066577  -0.831055  -0.234944   0.754522  -0.028283
   39  H  3  Z   -0.677650   0.145323  -0.457920  -0.200848  -0.735194
   40  H  3  S    0.013881  -0.152433   0.020619  -0.157695  -0.045263
   41  H  3  X    0.096431  -1.607598  -0.092331   0.799565   0.239836
   42  H  3  Y    0.125844   0.219072  -0.224326   0.330875  -0.116929
   43  H  3  Z    0.683120  -0.118244  -0.806135  -0.139460   0.095160
   44  H  4  S   -0.052837  -0.179732   0.288335  -0.095449  -0.620946
   45  H  4  S   -0.265849  -2.194702   3.385288  -0.627497  -1.896646
   46  H  4  X    0.562194   0.042526  -0.554057   0.205321  -0.459191
   47  H  4  Y   -0.074249   0.478508  -0.636716   0.414556   0.422397
   48  H  4  Z    0.414751  -0.443159   0.283584  -0.148127  -0.308405
   49  H  4  S   -0.006946   0.052216  -0.109236  -0.191409  -0.054902
   50  H  4  X   -0.467877  -1.043796   0.231138   0.165540  -0.286248
   51  H  4  Y    0.135720   0.664785  -0.723620   0.435031   0.052369
   52  H  4  Z   -0.254977   0.169209  -1.353214  -0.044076   0.477815

                     41         42         43         44         45
                    2.3245     2.4096     2.4483     2.4710     2.7393
                     A          A          A          A          A   
    1  N  1  S    0.008446  -1.152322   0.198496   0.223801  -0.102375
    2  N  1  S    0.021493  -2.316257   0.397314   0.436993  -0.083506
    3  N  1  S    0.020600   7.207817  -1.229094  -1.465710   2.843613
    4  N  1  X   -0.194536  -0.264397  -0.750553  -0.433796   0.101362
    5  N  1  Y    0.094219  -0.078502   0.362561   0.004412   0.327271
    6  N  1  Z    0.062147  -0.040395   0.388554  -0.839875  -0.093083
    7  N  1  X   -2.243944   1.024525   1.917551   0.931446   0.393917
    8  N  1  Y    0.738517   1.474296  -1.213294  -0.272443   1.011321
    9  N  1  Z    0.259470   0.029438  -1.110865   2.185998  -0.086273
   10  N  1 XX    0.352660   0.099974   0.050877   0.095774  -0.318476
   11  N  1 YY   -0.264040  -0.165259   0.109159   0.041947   0.739684
   12  N  1 ZZ   -0.088619   0.065285  -0.160036  -0.137720  -0.421208
   13  N  1 XY    0.401498  -0.112796  -0.086341  -0.116168   0.477776
   14  N  1 XZ   -0.048411   0.007824   0.172273  -0.162581  -0.097346
   15  N  1 YZ   -0.090136  -0.005916  -0.033089  -0.075168  -0.266633
   16  N  1  S    0.052633   2.720839  -0.439858  -0.582789   2.092103
   17  N  1  X   -0.445729   0.158759   0.353402   0.178371   0.043678
   18  N  1  Y    0.155097   0.187818  -0.198745  -0.038841   0.149471
   19  N  1  Z    0.047038   0.019537  -0.197621   0.391237  -0.003271
   20  N  1 XX   -0.717753   0.011669   0.373021   0.201705   0.109557
   21  N  1 YY    0.612054   0.150314  -0.434550  -0.000097  -0.252364
   22  N  1 ZZ    0.105699  -0.161983   0.061528  -0.201608   0.142807
   23  N  1 XY   -0.972238   0.183374   0.393256   0.200502  -0.152669
   24  N  1 XZ    0.197502   0.010189  -0.041825   0.005945  -0.002775
   25  N  1 YZ    0.149575   0.066404  -0.279532   0.512714   0.120355
   26  H  2  S   -0.291220  -0.549302   0.055882   0.703561  -0.515533
   27  H  2  S   -0.815703  -1.385249  -0.224750   4.031953  -1.041320
   28  H  2  X    0.683981  -0.183745  -0.221964  -0.239767  -0.398597
   29  H  2  Y   -0.153948  -0.279051   0.201045   0.212498  -0.269255
   30  H  2  Z   -0.329372  -0.066760   0.193021  -0.820260  -0.517983
   31  H  2  S   -0.054405  -0.168046  -0.001156   0.468655  -0.127432
   32  H  2  X   -0.124737  -0.152487   0.024548   0.551682   0.033211
   33  H  2  Y    0.008045   0.286727  -0.042186  -0.383957   0.157009
   34  H  2  Z   -0.193148  -0.608611  -0.093706   1.705033  -0.021005
   35  H  3  S    0.986614  -0.806898  -0.368275  -0.151890  -0.552760
   36  H  3  S    2.902206  -2.804467  -2.608625  -1.382683  -1.297109
   37  H  3  X   -0.277527  -0.283421  -0.703307  -0.466179   0.491992
   38  H  3  Y   -0.291272  -0.317996   0.164324   0.028684  -0.443370
   39  H  3  Z   -0.206299  -0.010315   0.116424  -0.276228   0.158428
   40  H  3  S    0.134839  -0.336868  -0.309264  -0.180612  -0.134462
   41  H  3  X   -0.796389   1.321045   1.193116   0.663859   0.166895
   42  H  3  Y    0.425885   0.088690  -0.108200  -0.049787   0.146436
   43  H  3  Z   -0.158337   0.099207   0.067395   0.120032   0.003527
   44  H  4  S   -0.743684  -0.698282   0.708654  -0.115201  -0.554353
   45  H  4  S   -2.156018  -1.839859   3.817754  -1.374142  -1.333100
   46  H  4  X    0.420481  -0.225834  -0.442759   0.004333  -0.431500
   47  H  4  Y    0.295069  -0.203170   0.462148  -0.110184  -0.044942
   48  H  4  Z    0.399502   0.065812   0.472319  -0.497088   0.482524
   49  H  4  S   -0.088506  -0.201760   0.425616  -0.143755  -0.153628
   50  H  4  X   -0.389163  -0.314926   0.787080  -0.241233   0.001019
   51  H  4  Y    0.113162   0.551862  -0.972201   0.320426   0.227900
   52  H  4  Z    0.463175   0.547901  -1.211532   0.502859   0.057375

                     46         47         48         49         50
                    2.9134     2.9252     3.1098     3.5645     3.5863
                     A          A          A          A          A   
    1  N  1  S    0.020945  -0.036062  -0.022122   0.014823  -0.019816
    2  N  1  S    0.063041  -0.086836   0.208817   0.029583  -0.046098
    3  N  1  S    0.260444  -0.096225   4.871652  -0.050958  -0.231378
    4  N  1  X   -0.002112   0.166569   0.169964   0.519000   0.291056
    5  N  1  Y    0.083463  -0.085891   0.510696  -0.228261  -0.023852
    6  N  1  Z    0.145368   0.069128  -0.111521  -0.276104   0.594356
    7  N  1  X    0.236826  -0.974860   0.388991   2.838472   1.681687
    8  N  1  Y   -0.141482   0.221784   1.599497  -1.250772  -0.056655
    9  N  1  Z   -0.962967  -0.231780  -0.079618  -1.342433   3.034963
   10  N  1 XX    0.165312   0.390640   0.351776   1.102039   0.833114
   11  N  1 YY   -0.281938   0.435044  -0.624741  -0.703186   0.144252
   12  N  1 ZZ    0.116626  -0.825684   0.272966  -0.398853  -0.977366
   13  N  1 XY   -0.159803  -0.810772  -0.513495   0.644303   0.171340
   14  N  1 XZ   -1.144738   0.155028   0.220188   0.451856  -0.489049
   15  N  1 YZ   -0.358111  -0.443030   0.278799  -0.726074   1.009678
   16  N  1  S    0.134713  -0.052997   2.276833  -0.018113  -0.095045
   17  N  1  X    0.019536  -0.064451   0.163625   0.531104   0.327557
   18  N  1  Y    0.038968  -0.018815   0.518719  -0.221276  -0.021002
   19  N  1  Z   -0.039794  -0.011100  -0.069844  -0.233696   0.565463
   20  N  1 XX   -0.042254  -0.316532  -0.137482   0.287844   0.215590
   21  N  1 YY    0.021935  -0.052728   0.249933  -0.234693   0.007469
   22  N  1 ZZ    0.020319   0.369260  -0.112451  -0.053151  -0.223059
   23  N  1 XY    0.106040   0.090642   0.147913   0.258669   0.124577
   24  N  1 XZ    0.411032  -0.044471  -0.070117   0.014882  -0.040998
   25  N  1 YZ   -0.094168   0.102280  -0.043110  -0.182048   0.343980
   26  H  2  S   -0.269565  -0.090186  -1.150431  -0.118379   2.307559
   27  H  2  S   -1.329831  -0.828601  -1.406299  -0.178671   3.993135
   28  H  2  X   -0.450853   0.430738  -0.147207  -0.192055   0.308469
   29  H  2  Y   -0.096247  -0.448225   0.353759   0.130271  -0.405311
   30  H  2  Z    0.146853  -0.088622  -0.874973  -0.005312   1.074643
   31  H  2  S    0.002692  -0.008086  -0.141275   0.008562   0.285710
   32  H  2  X    0.104110  -0.257759  -0.217403  -0.137318   0.291827
   33  H  2  Y    0.188852   0.318847  -0.110667   0.057957  -0.518974
   34  H  2  Z   -0.480986  -0.165987  -0.228865  -0.002931   1.184895
   35  H  3  S   -0.112751   0.293956  -1.165892  -1.810103  -1.209992
   36  H  3  S   -0.301459   1.540700  -1.359444  -3.163347  -2.199882
   37  H  3  X    0.017685   0.082320   0.977774   0.945251   0.616523
   38  H  3  Y    0.121577   0.324419   0.156148   0.118453   0.010992
   39  H  3  Z    0.651810   0.016356  -0.008796   0.176180  -0.095832
   40  H  3  S   -0.001024   0.009760  -0.145945  -0.223279  -0.170265
   41  H  3  X    0.117465  -0.540347   0.225595   1.041805   0.748019
   42  H  3  Y   -0.075760  -0.195281  -0.203036   0.187365   0.113893
   43  H  3  Z   -0.314686  -0.045870   0.094663   0.129905  -0.074891
   44  H  4  S    0.160083  -0.057639  -1.273358   1.957513  -0.897350
   45  H  4  S    1.352588  -0.599179  -1.860876   3.372087  -1.595031
   46  H  4  X    0.276769   0.462414  -0.337385   0.305360  -0.339822
   47  H  4  Y    0.317312  -0.277039   0.660105  -0.691198   0.367491
   48  H  4  Z    0.161729   0.362577   0.605115  -0.718109   0.170089
   49  H  4  S   -0.022407   0.002098  -0.152256   0.220613  -0.094717
   50  H  4  X   -0.001804  -0.274392  -0.270366   0.345524  -0.260022
   51  H  4  Y   -0.489700   0.272073   0.128759  -0.820289   0.410071
   52  H  4  Z   -0.337450  -0.065251   0.329408  -0.716488   0.270330
 ...... END OF RHF CALCULATION ......
 CPU     0: STEP CPU TIME=     0.30 TOTAL CPU TIME=        0.3 (    0.0 MIN)
 TOTAL WALL CLOCK TIME=        0.4 SECONDS, CPU UTILIZATION IS  86.84%

     ----------------------------------------------------------------
     PROPERTY VALUES FOR THE RHF   SELF-CONSISTENT FIELD WAVEFUNCTION
     ----------------------------------------------------------------

          -----------------
          ENERGY COMPONENTS
          -----------------

         WAVEFUNCTION NORMALIZATION =       1.0000000000

                ONE ELECTRON ENERGY =     -99.8886346715
                TWO ELECTRON ENERGY =      31.5395033590
           NUCLEAR REPULSION ENERGY =      12.1451530544
                                      ------------------
                       TOTAL ENERGY =     -56.2039782580

 ELECTRON-ELECTRON POTENTIAL ENERGY =      31.5395033590
  NUCLEUS-ELECTRON POTENTIAL ENERGY =    -156.0641007835
   NUCLEUS-NUCLEUS POTENTIAL ENERGY =      12.1451530544
                                      ------------------
             TOTAL POTENTIAL ENERGY =    -112.3794443700
               TOTAL KINETIC ENERGY =      56.1754661120
                 VIRIAL RATIO (V/T) =       2.0005075551

          ---------------------------------------
          MULLIKEN AND LOWDIN POPULATION ANALYSES
          ---------------------------------------

     ATOMIC MULLIKEN POPULATION IN EACH MOLECULAR ORBITAL

                      1          2          3          4          5

                  2.000000   2.000000   2.000000   2.000000   2.000000

    1             1.997808   1.169471   1.022311   1.042652   1.809074
    2             0.000730   0.297094   0.472943   0.166177   0.062675
    3             0.000746   0.263173   0.495597   0.152401   0.065997
    4             0.000717   0.270262   0.009149   0.638770   0.062253

               ----- POPULATIONS IN EACH AO -----
                             MULLIKEN      LOWDIN
              1  N  1  S      2.00426     1.84775
              2  N  1  S      0.76015     0.51753
              3  N  1  S      0.56828     0.27663
              4  N  1  X      0.74246     0.65307
              5  N  1  Y      0.88124     0.79791
              6  N  1  Z      0.73686     0.64869
              7  N  1  X      0.33924     0.44327
              8  N  1  Y      0.58699     0.51232
              9  N  1  Z      0.31688     0.43693
             10  N  1 XX      0.00557     0.14231
             11  N  1 YY      0.00756     0.11786
             12  N  1 ZZ      0.00357     0.13905
             13  N  1 XY      0.00117     0.00436
             14  N  1 XZ      0.01013     0.00362
             15  N  1 YZ      0.00000     0.01472
             16  N  1  S      0.03646     0.05612
             17  N  1  X      0.00685     0.04160
             18  N  1  Y      0.05707     0.06188
             19  N  1  Z      0.00152     0.03893
             20  N  1 XX     -0.00718     0.04797
             21  N  1 YY     -0.00616     0.02774
             22  N  1 ZZ     -0.00104     0.04093
             23  N  1 XY     -0.00393     0.00573
             24  N  1 XZ     -0.00663     0.00972
             25  N  1 YZ      0.00000     0.02129
             26  H  2  S      0.76772     0.51382
             27  H  2  S      0.16389     0.12448
             28  H  2  X      0.01263     0.02853
             29  H  2  Y      0.01610     0.04173
             30  H  2  Z      0.03061     0.04886
             31  H  2  S      0.00224     0.01376
             32  H  2  X     -0.00140     0.07141
             33  H  2  Y      0.01494     0.10293
             34  H  2  Z     -0.00711     0.09540
             35  H  3  S      0.75544     0.51301
             36  H  3  S      0.15826     0.12697
             37  H  3  X      0.03466     0.05369
             38  H  3  Y      0.01360     0.03711
             39  H  3  Z      0.00977     0.02330
             40  H  3  S      0.00150     0.01384
             41  H  3  X     -0.00781     0.10059
             42  H  3  Y      0.01474     0.09617
             43  H  3  Z     -0.00223     0.06631
             44  H  4  S      0.75742     0.50603
             45  H  4  S      0.15784     0.12518
             46  H  4  X      0.01451     0.02902
             47  H  4  Y      0.02275     0.04726
             48  H  4  Z      0.02124     0.03615
             49  H  4  S      0.00182     0.01384
             50  H  4  X     -0.00085     0.07280
             51  H  4  Y      0.01147     0.11069
             52  H  4  Z     -0.00505     0.07920

          ----- MULLIKEN ATOMIC OVERLAP POPULATIONS -----
          (OFF-DIAGONAL ELEMENTS NEED TO BE MULTIPLIED BY 2)

             1           2           3           4

    1    5.9251274
    2    0.3732948   0.7636702
    3    0.3727702  -0.0677418   0.7380033
    4    0.3701235  -0.0696049  -0.0651181   0.7457515

          TOTAL MULLIKEN AND LOWDIN ATOMIC POPULATIONS
       ATOM         MULL.POP.    CHARGE          LOW.POP.     CHARGE
    1 N             7.041316   -0.041316         6.907931    0.092069
    2 H             0.999618    0.000382         1.040924   -0.040924
    3 H             0.977914    0.022086         1.030989   -0.030989
    4 H             0.981152    0.018848         1.020156   -0.020156

          MULLIKEN SPHERICAL HARMONIC POPULATIONS
       ATOM           S       P       D      F      G      H      I    TOTAL
    1 N             3.37    3.67    0.00   0.00   0.00   0.00   0.00    7.04
    2 H             0.93    0.07    0.00   0.00   0.00   0.00   0.00    1.00
    3 H             0.92    0.06    0.00   0.00   0.00   0.00   0.00    0.98
    4 H             0.92    0.06    0.00   0.00   0.00   0.00   0.00    0.98

          -------------------------------
          BOND ORDER AND VALENCE ANALYSIS     BOND ORDER THRESHOLD=0.050
          -------------------------------

                   BOND                       BOND                       BOND
  ATOM PAIR DIST  ORDER      ATOM PAIR DIST  ORDER      ATOM PAIR DIST  ORDER
    1   2  0.988  1.034        1   3  1.004  1.026        1   4  1.003  1.023

                       TOTAL       BONDED        FREE
      ATOM            VALENCE     VALENCE     VALENCE
    1 N                 3.083       3.083       0.000
    2 H                 1.008       1.008       0.000
    3 H                 0.998       0.998       0.000
    4 H                 1.000       1.000       0.000

          ---------------------
          ELECTROSTATIC MOMENTS
          ---------------------

 POINT   1           X           Y           Z (BOHR)    CHARGE
                 3.586297    2.453597    0.657808        0.00 (A.U.)
         DX          DY          DZ         /D/  (DEBYE)
     0.546222    1.666582   -0.301063    1.779465
 ...... END OF PROPERTY EVALUATION ......
 CPU     0: STEP CPU TIME=     0.01 TOTAL CPU TIME=        0.3 (    0.0 MIN)
 TOTAL WALL CLOCK TIME=        0.4 SECONDS, CPU UTILIZATION IS  87.18%
                580000  WORDS OF DYNAMIC MEMORY USED
 EXECUTION OF GAMESS TERMINATED NORMALLY Sun Dec 22 19:39:56 2013
 DDI: 263624 bytes (0.3 MB / 0 MWords) used by master data server.

 ----------------------------------------
 CPU timing information for all processes
 ========================================
 0: 0.310 + 0.39 = 0.350
 1: 0.311 + 0.24 = 0.336
 2: 0.316 + 0.21 = 0.338
 3: 0.322 + 0.13 = 0.336
 ----------------------------------------
 ddikick.x: exited gracefully.
unset echo
----- accounting info -----
Files used on the master node ni.msg.chem.iastate.edu were:
-rw-r--r-- 1 federico gordon     378 Dec 22 19:39 /scr/federico/amo.F05
-rw-r--r-- 1 federico gordon 1537840 Dec 22 19:39 /scr/federico/amo.F10
ls: No match.
ls: No match.
ls: No match.
Sun Dec 22 19:39:59 CST 2013
0.090u 0.035s 0:03.70 3.2%	0+0k 56+192io 0pf+0w
