----- GAMESS execution script 'rungms' -----
This job is running on host archvm
under operating system Linux at Thu Oct 16 15:24:54 EDT 2014
Available scratch disk space (Kbyte units) at beginning of the job is
Filesystem     1K-blocks     Used Available Use% Mounted on
/dev/vda1       80222524 55259936  20864596  73% /
GAMESS temporary binary files will be written to /scratch
GAMESS supplementary output files will be written to /scratch
Copying input file amo.inp to your run's scratch directory...

 Distributed Data Interface kickoff program.
 Initiating 1 compute processes on 1 nodes to run the following command:
 /home/ben/programming/gamess/gamess-master/gamess.00.x amo 

          ******************************************************
          *         GAMESS VERSION =  1 MAY 2013 (R1)          *
          *             FROM IOWA STATE UNIVERSITY             *
          * M.W.SCHMIDT, K.K.BALDRIDGE, J.A.BOATZ, S.T.ELBERT, *
          *   M.S.GORDON, J.H.JENSEN, S.KOSEKI, N.MATSUNAGA,   *
          *          K.A.NGUYEN, S.J.SU, T.L.WINDUS,           *
          *       TOGETHER WITH M.DUPUIS, J.A.MONTGOMERY       *
          *         J.COMPUT.CHEM.  14, 1347-1363(1993)        *
          **************** 64 BIT INTEL VERSION ****************

  SINCE 1993, STUDENTS AND POSTDOCS WORKING AT IOWA STATE UNIVERSITY
  AND ALSO IN THEIR VARIOUS JOBS AFTER LEAVING ISU HAVE MADE IMPORTANT
  CONTRIBUTIONS TO THE CODE:
     IVANA ADAMOVIC, CHRISTINE AIKENS, YURI ALEXEEV, POOJA ARORA,
     ANDREY ASADCHEV, ROB BELL, PRADIPTA BANDYOPADHYAY, JONATHAN BENTZ,
     BRETT BODE, GALINA CHABAN, WEI CHEN, CHEOL HO CHOI, PAUL DAY,
     ALBERT DEFUSCO, TIM DUDLEY, DMITRI FEDOROV, GRAHAM FLETCHER,
     MARK FREITAG, KURT GLAESEMANN, DAN KEMP, GRANT MERRILL,
     NORIYUKI MINEZAWA, JONATHAN MULLIN, TAKESHI NAGATA,
     SEAN NEDD, HEATHER NETZLOFF, BOSILJKA NJEGIC, RYAN OLSON, MIKE PAK,
     JIM SHOEMAKER, LYUDMILA SLIPCHENKO, SAROM SOK, JIE SONG,
     TETSUYA TAKETSUGU, SIMON WEBB, SOOHAENG YOO, FEDERICO ZAHARIEV

  ADDITIONAL CODE HAS BEEN PROVIDED BY COLLABORATORS IN OTHER GROUPS:
     IOWA STATE UNIVERSITY:
          JOE IVANIC, LAIMUTIS BYTAUTAS, KLAUS RUEDENBERG
     UNIVERSITY OF TOKYO: KIMIHIKO HIRAO, TAKAHITO NAKAJIMA,
          TAKAO TSUNEDA, MUNEAKI KAMIYA, SUSUMU YANAGISAWA,
          KIYOSHI YAGI, MAHITO CHIBA, SEIKEN TOKURA, NAOAKI KAWAKAMI
     UNIVERSITY OF AARHUS: FRANK JENSEN
     UNIVERSITY OF IOWA: VISVALDAS KAIRYS, HUI LI
     NATIONAL INST. OF STANDARDS AND TECHNOLOGY: WALT STEVENS, DAVID GARMER
     UNIVERSITY OF PISA: BENEDETTA MENNUCCI, JACOPO TOMASI
     UNIVERSITY OF MEMPHIS: HENRY KURTZ, PRAKASHAN KORAMBATH
     UNIVERSITY OF ALBERTA: TOBY ZENG, MARIUSZ KLOBUKOWSKI
     UNIVERSITY OF NEW ENGLAND: MARK SPACKMAN
     MIE UNIVERSITY: HIROAKI UMEDA
     MICHIGAN STATE UNIVERSITY:
          KAROL KOWALSKI, MARTA WLOCH, JEFFREY GOUR, JESSE LUTZ,
          WEI LI, PIOTR PIECUCH
     UNIVERSITY OF SILESIA: MONIKA MUSIAL, STANISLAW KUCHARSKI
     FACULTES UNIVERSITAIRES NOTRE-DAME DE LA PAIX:
          OLIVIER QUINET, BENOIT CHAMPAGNE
     UNIVERSITY OF CALIFORNIA - SANTA BARBARA: BERNARD KIRTMAN
     INSTITUTE FOR MOLECULAR SCIENCE:
          KAZUYA ISHIMURA, MICHIO KATOUDA, AND SHIGERU NAGASE
     UNIVERSITY OF NOTRE DAME: DAN CHIPMAN
     KYUSHU UNIVERSITY:
          HARUYUKI NAKANO,
          FENG LONG GU, JACEK KORCHOWIEC, MARCIN MAKOWSKI, AND YURIKO AOKI,
          HIROTOSHI MORI AND EISAKU MIYOSHI
     PENNSYLVANIA STATE UNIVERSITY:
          TZVETELIN IORDANOV, CHET SWALINA, JONATHAN SKONE,
          SHARON HAMMES-SCHIFFER
     WASEDA UNIVERSITY:
          MASATO KOBAYASHI, TOMOKO AKAMA, TSUGUKI TOUMA,
          TAKESHI YOSHIKAWA, YASUHIRO IKABATA, HIROMI NAKAI
     NANJING UNIVERSITY: SHUHUA LI
     UNIVERSITY OF NEBRASKA:
          PEIFENG SU, DEJUN SI, NANDUN THELLAMUREGE, YALI WANG, HUI LI
     UNIVERSITY OF ZURICH:
          ROBERTO PEVERATI, KIM BALDRIDGE
     N. COPERNICUS UNIVERSITY AND JACKSON STATE UNIVERSITY:
          MARIA BARYSZ

 EXECUTION OF GAMESS BEGUN Thu Oct 16 15:24:54 2014

            ECHO OF THE FIRST FEW INPUT CARDS -
 INPUT CARD> $CONTRL ispher=1 scftyp=rhf nprint=3 $end                                      
 INPUT CARD> $basis gbasis=accd $end                                                        
 INPUT CARD> $scf dirscf=.t. $end                                                           
 INPUT CARD> $system memory=10000000 $end                                                   
 INPUT CARD> $DATA                                                                          
 INPUT CARD>                                                                                
 INPUT CARD> C1                                                                             
 INPUT CARD> N           7.0   1.8753260893   1.2278971082   0.3595137322                   
 INPUT CARD> H           1.0   1.6237440122   1.5930738032  -0.5233893479                   
 INPUT CARD> H           1.0   2.8687723240   1.3533497046   0.4293906575                   
 INPUT CARD> H           1.0   1.5129248729   1.9281634681   0.9796664950                   
 INPUT CARD> $END                                                                           
   10000000 WORDS OF MEMORY AVAILABLE

     BASIS OPTIONS
     -------------
     GBASIS=ACCD         IGAUSS=       0      POLAR=NONE    
     NDFUNC=       0     NFFUNC=       0     DIFFSP=       F
     NPFUNC=       0      DIFFS=       F     BASNAM=        


     RUN TITLE
     ---------
                                                                                 

 THE POINT GROUP OF THE MOLECULE IS C1      
 THE ORDER OF THE PRINCIPAL AXIS IS     0

 ATOM      ATOMIC                      COORDINATES (BOHR)
           CHARGE         X                   Y                   Z
 N           7.0     3.5438524464        2.3203890756        0.6793824427
 H           1.0     3.0684312573        3.0104729663       -0.9890624524
 H           1.0     5.4211936135        2.5574601073        0.8114306844
 H           1.0     2.8590134498        3.6437006142        1.8513012349

          INTERNUCLEAR DISTANCES (ANGS.)
          ------------------------------

                1 N          2 H          3 H          4 H     

   1 N       0.0000000    0.9880108 *  1.0037712 *  1.0031436 *
   2 H       0.9880108 *  0.0000000    1.5859864 *  1.5439374 *
   3 H       1.0037712 *  1.5859864 *  0.0000000    1.5721122 *
   4 H       1.0031436 *  1.5439374 *  1.5721122 *  0.0000000  

  * ... LESS THAN  3.000


     ATOMIC BASIS SET
     ----------------
 THE CONTRACTED PRIMITIVE FUNCTIONS HAVE BEEN UNNORMALIZED
 THE CONTRACTED BASIS FUNCTIONS ARE NOW NORMALIZED TO UNITY

  SHELL TYPE  PRIMITIVE        EXPONENT          CONTRACTION COEFFICIENT(S)

 N         

      1   S       1          9046.0000000    0.000699617413
      1   S       2          1357.0000000    0.005386054630
      1   S       3           309.3000000    0.027391021189
      1   S       4            87.7300000    0.103150591982
      1   S       5            28.5600000    0.278570663317
      1   S       6            10.2100000    0.448294849454
      1   S       7             3.8380000    0.278085928395
      1   S       8             0.7466000    0.015431561233

      2   S       9          9046.0000000   -0.000304990096
      2   S      10          1357.0000000   -0.002408026379
      2   S      11           309.3000000   -0.011944448725
      2   S      12            87.7300000   -0.048925992909
      2   S      13            28.5600000   -0.134472724725
      2   S      14            10.2100000   -0.315112577700
      2   S      15             3.8380000   -0.242857832550
      2   S      16             0.7466000    1.094382206854

      3   S      17             0.2248000    1.000000000000

      4   P      18            13.5500000    0.058905676772
      4   P      19             2.9170000    0.320461106714
      4   P      20             0.7973000    0.753042061792

      5   P      21             0.2185000    1.000000000000

      6   D      22             0.8170000    1.000000000000

      7   S      23             0.0612400    1.000000000000

      8   P      24             0.0561100    1.000000000000

      9   D      25             0.2300000    1.000000000000

 H         

     10   S      26            13.0100000    0.033498726390
     10   S      27             1.9620000    0.234800801174
     10   S      28             0.4446000    0.813682957883

     11   S      29             0.1220000    1.000000000000

     12   P      30             0.7270000    1.000000000000

     13   S      31             0.0297400    1.000000000000

     14   P      32             0.1410000    1.000000000000

 H         

     15   S      33            13.0100000    0.033498726390
     15   S      34             1.9620000    0.234800801174
     15   S      35             0.4446000    0.813682957883

     16   S      36             0.1220000    1.000000000000

     17   P      37             0.7270000    1.000000000000

     18   S      38             0.0297400    1.000000000000

     19   P      39             0.1410000    1.000000000000

 H         

     20   S      40            13.0100000    0.033498726390
     20   S      41             1.9620000    0.234800801174
     20   S      42             0.4446000    0.813682957883

     21   S      43             0.1220000    1.000000000000

     22   P      44             0.7270000    1.000000000000

     23   S      45             0.0297400    1.000000000000

     24   P      46             0.1410000    1.000000000000

 TOTAL NUMBER OF BASIS SET SHELLS             =   24
 NUMBER OF CARTESIAN GAUSSIAN BASIS FUNCTIONS =   52
 NOTE: THIS RUN WILL RESTRICT THE MO VARIATION SPACE TO SPHERICAL HARMONICS.
 THE NUMBER OF ORBITALS KEPT IN THE VARIATIONAL SPACE WILL BE PRINTED LATER.
 NUMBER OF ELECTRONS                          =   10
 CHARGE OF MOLECULE                           =    0
 SPIN MULTIPLICITY                            =    1
 NUMBER OF OCCUPIED ORBITALS (ALPHA)          =    5
 NUMBER OF OCCUPIED ORBITALS (BETA )          =    5
 TOTAL NUMBER OF ATOMS                        =    4
 THE NUCLEAR REPULSION ENERGY IS       12.1451530544

     $CONTRL OPTIONS
     ---------------
 SCFTYP=RHF          RUNTYP=ENERGY       EXETYP=RUN     
 MPLEVL=       0     CITYP =NONE         CCTYP =NONE         VBTYP =NONE    
 DFTTYP=NONE         TDDFT =NONE    
 MULT  =       1     ICHARG=       0     NZVAR =       0     COORD =UNIQUE  
 PP    =NONE         RELWFN=NONE         LOCAL =NONE         NUMGRD=       F
 ISPHER=       1     NOSYM =       0     MAXIT =      30     UNITS =ANGS    
 PLTORB=       F     MOLPLT=       F     AIMPAC=       F     FRIEND=        
 NPRINT=       3     IREST =       0     GEOM  =INPUT   
 NORMF =       0     NORMP =       0     ITOL  =      20     ICUT  =       9
 INTTYP=BEST         GRDTYP=BEST         QMTTOL= 1.0E-06

     $SYSTEM OPTIONS
     ---------------
  REPLICATED MEMORY=    10000000 WORDS (ON EVERY NODE).
 DISTRIBUTED MEMDDI=           0 MILLION WORDS IN AGGREGATE,
 MEMDDI DISTRIBUTED OVER   1 PROCESSORS IS           0 WORDS/PROCESSOR.
 TOTAL MEMORY REQUESTED ON EACH PROCESSOR=    10000000 WORDS.
 TIMLIM=      525600.00 MINUTES, OR     365.0 DAYS.
 PARALL= F  BALTYP=  DLB     KDIAG=    0  COREFL= F
 MXSEQ2=     300 MXSEQ3=     150

          ----------------
          PROPERTIES INPUT
          ----------------

     MOMENTS            FIELD           POTENTIAL          DENSITY
 IEMOM =       1   IEFLD =       0   IEPOT =       0   IEDEN =       0
 WHERE =COMASS     WHERE =NUCLEI     WHERE =NUCLEI     WHERE =NUCLEI  
 OUTPUT=BOTH       OUTPUT=BOTH       OUTPUT=BOTH       OUTPUT=BOTH    
 IEMINT=       0   IEFINT=       0                     IEDINT=       0
                                                       MORB  =       0
          EXTRAPOLATION IN EFFECT
          SOSCF IN EFFECT
 ORBITAL PRINTING OPTION: NPREO=     1    52     2     1

     -------------------------------
     INTEGRAL TRANSFORMATION OPTIONS
     -------------------------------
     NWORD  =            0
     CUTOFF = 1.0E-09     MPTRAN =       0
     DIRTRF =       T     AOINTS =DUP     

          ----------------------
          INTEGRAL INPUT OPTIONS
          ----------------------
 NOPK  =       1 NORDER=       0 SCHWRZ=       T

     ------------------------------------------
     THE POINT GROUP IS C1 , NAXIS= 0, ORDER= 1
     ------------------------------------------

 -- VARIATIONAL SPACE WILL BE RESTRICTED TO PURE SPHERICAL HARMONICS ONLY --
 AFTER EXCLUDING CONTAMINANT COMBINATIONS FROM THE CARTESIAN GAUSSIAN BASIS
 SET, THE NUMBER OF SPHERICAL HARMONICS KEPT IN THE VARIATION SPACE IS   50

     DIMENSIONS OF THE SYMMETRY SUBSPACES ARE
 A   =   50

 ..... DONE SETTING UP THE RUN .....
 STEP CPU TIME =     0.01 TOTAL CPU TIME =        0.0 (    0.0 MIN)
 TOTAL WALL CLOCK TIME=        0.0 SECONDS, CPU UTILIZATION IS  50.00%

          ********************
          1 ELECTRON INTEGRALS
          ********************
 OVERLAP MATRIX

                      1          2          3          4          5

    1  N  1  S       1.000000000000
    2  N  1  S      -0.216579382838      1.000000000000
    3  N  1  S       0.192335913049      0.711714260609      1.000000000000
    4  N  1  X       0.000000000000     -0.000000000000      0.000000000000      1.000000000000
    5  N  1  Y       0.000000000000     -0.000000000000      0.000000000000      0.000000000000      1.000000000000
    6  N  1  Z       0.000000000000     -0.000000000000      0.000000000000      0.000000000000      0.000000000000
    7  N  1  X       0.000000000000     -0.000000000000     -0.000000000000      0.522156728645      0.000000000000
    8  N  1  Y       0.000000000000     -0.000000000000      0.000000000000      0.000000000000      0.522156728645
    9  N  1  Z       0.000000000000     -0.000000000000      0.000000000000      0.000000000000      0.000000000000
   10  N  1 XX       0.063018232803      0.615544337012      0.675755062828     -0.000000000000      0.000000000000
   11  N  1 YY       0.063018232803      0.615544337012      0.675755062828     -0.000000000000      0.000000000000
   12  N  1 ZZ       0.063018232803      0.615544337012      0.675755062828     -0.000000000000      0.000000000000
   13  N  1 XY       0.000000000000      0.000000000000      0.000000000000      0.000000000000     -0.000000000000
   14  N  1 XZ       0.000000000000      0.000000000000      0.000000000000     -0.000000000000      0.000000000000
   15  N  1 YZ       0.000000000000      0.000000000000      0.000000000000      0.000000000000     -0.000000000000
   16  N  1  S       0.076727127640      0.367935447916      0.743067824091      0.000000000000      0.000000000000
   17  N  1  X       0.000000000000     -0.000000000000      0.000000000000      0.142993429631      0.000000000000
   18  N  1  Y      -0.000000000000      0.000000000000      0.000000000000      0.000000000000      0.142993429631
   19  N  1  Z       0.000000000000     -0.000000000000      0.000000000000      0.000000000000      0.000000000000
   20  N  1 XX       0.010997785311      0.226314380543      0.583894204937     -0.000000000000     -0.000000000000
   21  N  1 YY       0.010997785311      0.226314380543      0.583894204937     -0.000000000000     -0.000000000000
   22  N  1 ZZ       0.010997785311      0.226314380543      0.583894204937     -0.000000000000     -0.000000000000
   23  N  1 XY       0.000000000000     -0.000000000000      0.000000000000     -0.000000000000     -0.000000000000
   24  N  1 XZ       0.000000000000     -0.000000000000      0.000000000000      0.000000000000      0.000000000000
   25  N  1 YZ       0.000000000000     -0.000000000000      0.000000000000      0.000000000000      0.000000000000
   26  H  2  S       0.060746892870      0.312320406214      0.500931752007     -0.087082280444      0.126401768091
   27  H  2  S       0.083272813000      0.381548848637      0.708466183281     -0.036309558167      0.052704090058
   28  H  2  X       0.030848905206      0.102461569315      0.082394926040      0.183422057120      0.059280551980
   29  H  2  Y      -0.044777837027     -0.148725130495     -0.119597974240      0.059280551980      0.138215380926
   30  H  2  Z       0.108261263035      0.359579013667      0.289157060885     -0.143325087964      0.208039390312
   31  H  2  S       0.040757923751      0.207229342752      0.469894327015     -0.005162734222      0.007493817692
   32  H  2  X       0.029911016956      0.114747478991      0.155786145545      0.224624736744      0.018912110507
   33  H  2  Y      -0.043416472438     -0.166558387706     -0.226126878404      0.018912110507      0.210202575895
   34  H  2  Z       0.104969834514      0.402695230926      0.546716480460     -0.045724606326      0.066370231181
   35  H  3  S       0.057959729976      0.302425550403      0.492284436527      0.330773667092      0.041770167230
   36  H  3  S       0.082174256155      0.377183343692      0.702213340893      0.141670907050      0.017890231502
   37  H  3  X      -0.113460864068     -0.390767325464     -0.319158014484     -0.393657404372     -0.076781268006
   38  H  3  Y      -0.014327861428     -0.049346178842     -0.040303340211     -0.076781268006      0.204669621863
   39  H  3  Z      -0.007980599298     -0.027485754395     -0.022448905596     -0.042767061686     -0.005400633413
   40  H  3  S       0.040623312953      0.206569098768      0.468512838918      0.020321017371      0.002566142285
   41  H  3  X      -0.116318280893     -0.447304114892     -0.609221152366      0.034028178424     -0.025308654368
   42  H  3  Y      -0.014688696617     -0.056485656328     -0.076932573376     -0.025308654368      0.231248832618
   43  H  3  Z      -0.008181584006     -0.031462433628     -0.042851338571     -0.014096886007     -0.001780157686
   44  H  4  S       0.058068833735      0.302816269672      0.492628463406     -0.120851217813      0.233520304452
   45  H  4  S       0.082218052413      0.377357536780      0.702463155144     -0.051705267389      0.099909872659
   46  H  4  X       0.041507719604      0.142748554455      0.116516232470      0.133692086051      0.156635416436
   47  H  4  Y      -0.080205193579     -0.275832436774     -0.225143830343      0.156635416436     -0.087912056488
   48  H  4  Z      -0.071029361450     -0.244275974873     -0.199386371258      0.138715625678     -0.268039625308
   49  H  4  S       0.040628705315      0.206595548921      0.468568189504     -0.007413902270      0.014325852454
   50  H  4  X       0.042458043817      0.163257470965      0.222325619273      0.207888080582      0.051562641086
   51  H  4  Y      -0.082041501095     -0.315461730661     -0.429598867431      0.051562641086      0.134938455746
   52  H  4  Z      -0.072655587191     -0.279371500660     -0.380450839551      0.045663644804     -0.088235670521

                      6          7          8          9         10

    6  N  1  Z       1.000000000000
    7  N  1  X       0.000000000000      1.000000000000
    8  N  1  Y       0.000000000000      0.000000000000      1.000000000000
    9  N  1  Z       0.522156728645      0.000000000000      0.000000000000      1.000000000000
   10  N  1 XX      -0.000000000000      0.000000000000      0.000000000000      0.000000000000      1.000000000000
   11  N  1 YY      -0.000000000000      0.000000000000      0.000000000000      0.000000000000      0.333333333333
   12  N  1 ZZ      -0.000000000000      0.000000000000      0.000000000000      0.000000000000      0.333333333333
   13  N  1 XY       0.000000000000      0.000000000000      0.000000000000      0.000000000000      0.000000000000
   14  N  1 XZ      -0.000000000000      0.000000000000      0.000000000000      0.000000000000      0.000000000000
   15  N  1 YZ       0.000000000000      0.000000000000      0.000000000000      0.000000000000      0.000000000000
   16  N  1  S       0.000000000000     -0.000000000000      0.000000000000      0.000000000000      0.390522727317
   17  N  1  X       0.000000000000      0.583981052273      0.000000000000      0.000000000000      0.000000000000
   18  N  1  Y       0.000000000000      0.000000000000      0.583981052273      0.000000000000      0.000000000000
   19  N  1  Z       0.142993429631      0.000000000000      0.000000000000      0.583981052273      0.000000000000
   20  N  1 XX       0.000000000000      0.000000000000      0.000000000000      0.000000000000      0.516658895165
   21  N  1 YY       0.000000000000      0.000000000000      0.000000000000      0.000000000000      0.172219631722
   22  N  1 ZZ       0.000000000000      0.000000000000      0.000000000000      0.000000000000      0.172219631722
   23  N  1 XY       0.000000000000      0.000000000000      0.000000000000      0.000000000000      0.000000000000
   24  N  1 XZ      -0.000000000000      0.000000000000      0.000000000000      0.000000000000      0.000000000000
   25  N  1 YZ      -0.000000000000      0.000000000000      0.000000000000      0.000000000000      0.000000000000
   26  H  2  S      -0.305606879919     -0.155539084387      0.225768263918     -0.545849443108      0.238455907654
   27  H  2  S      -0.127424898914     -0.113836773854      0.165236479978     -0.399499198922      0.385396267325
   28  H  2  X      -0.143325087964      0.335738756185      0.040053400774     -0.096838794468     -0.042739870730
   29  H  2  Y       0.208039390312      0.040053400774      0.305194487301      0.140563554126     -0.114631377201
   30  H  2  Z      -0.278723245142     -0.096838794468      0.140563554126      0.023486417284      0.277149109987
   31  H  2  S      -0.018118118744     -0.025439286485      0.036925661274     -0.089276726911      0.225317882909
   32  H  2  X      -0.045724606326      0.671840076835      0.039301314683     -0.095020444243      0.078116273705
   33  H  2  Y       0.066370231181      0.039301314683      0.641869340269      0.137924180395     -0.172310114530
   34  H  2  Z       0.077187799419     -0.095020444243      0.137924180395      0.365450926482      0.416601423185
   35  H  3  S       0.023265926247      0.603682156412      0.076233107819      0.042461737208      0.522106101971
   36  H  3  S       0.009964834576      0.445590434319      0.056269252390      0.031341896930      0.420376370817
   37  H  3  X      -0.042767061686     -0.065692491390     -0.053321384205     -0.029699938366     -0.422448400031
   38  H  3  Y      -0.005400633413     -0.053321384205      0.349820641884     -0.003750514372     -0.111478052378
   39  H  3  Z       0.211357430845     -0.029699938366     -0.003750514372      0.354465045936     -0.062093123316
   40  H  3  S       0.001429337757      0.100160200166      0.012648250834      0.007045058485      0.226141135661
   41  H  3  X      -0.014096886007      0.274075388778     -0.052805138860     -0.029412390412     -0.367060956558
   42  H  3  Y      -0.001780157686     -0.052805138860      0.685565619720     -0.003714202757     -0.066323773846
   43  H  3  Z       0.233453269330     -0.029412390412     -0.003714202757      0.690165057723     -0.036942251684
   44  H  4  S       0.206804539342     -0.220370946668      0.425821861703      0.377105940136      0.252242460403
   45  H  4  S       0.088479737295     -0.162605061707      0.314201082972      0.278255076693      0.383933432928
   46  H  4  X       0.138715625678      0.300591435628      0.108657191666      0.096226323965     -0.043346423621
   47  H  4  Y      -0.268039625308      0.108657191666      0.146865769123     -0.185937724711     -0.241287405032
   48  H  4  Z      -0.022620790013      0.096226323965     -0.185937724711      0.192157988577     -0.213683048948
   49  H  4  S       0.012686910992     -0.036541939576      0.070609837529      0.062531756960      0.224737211573
   50  H  4  X       0.045663644804      0.636833601549      0.107565369952      0.095259411529      0.112765589660
   51  H  4  Y      -0.088235670521      0.107565369952      0.484652618999     -0.184069363840     -0.329434652439
   52  H  4  Z       0.156431616207      0.095259411529     -0.184069363840      0.529489727955     -0.291745857821

                     11         12         13         14         15

   11  N  1 YY       1.000000000000
   12  N  1 ZZ       0.333333333333      1.000000000000
   13  N  1 XY       0.000000000000      0.000000000000      1.000000000000
   14  N  1 XZ       0.000000000000      0.000000000000      0.000000000000      1.000000000000
   15  N  1 YZ       0.000000000000      0.000000000000      0.000000000000      0.000000000000      1.000000000000
   16  N  1  S       0.390522727317      0.390522727317      0.000000000000      0.000000000000      0.000000000000
   17  N  1  X       0.000000000000      0.000000000000      0.000000000000      0.000000000000      0.000000000000
   18  N  1  Y       0.000000000000      0.000000000000      0.000000000000      0.000000000000      0.000000000000
   19  N  1  Z       0.000000000000      0.000000000000      0.000000000000      0.000000000000      0.000000000000
   20  N  1 XX       0.172219631722      0.172219631722      0.000000000000      0.000000000000      0.000000000000
   21  N  1 YY       0.516658895165      0.172219631722      0.000000000000      0.000000000000      0.000000000000
   22  N  1 ZZ       0.172219631722      0.516658895165      0.000000000000      0.000000000000      0.000000000000
   23  N  1 XY       0.000000000000      0.000000000000      0.516658895165      0.000000000000      0.000000000000
   24  N  1 XZ       0.000000000000      0.000000000000      0.000000000000      0.516658895165      0.000000000000
   25  N  1 YZ       0.000000000000      0.000000000000      0.000000000000      0.000000000000      0.516658895165
   26  H  2  S       0.261529664802      0.474337626220     -0.052406916393      0.126706409625     -0.183917027936
   27  H  2  S       0.388431287117      0.416423103562     -0.006893373605      0.016666399777     -0.024191631050
   28  H  2  X       0.090687605331      0.198728203002      0.126393518854     -0.305586935389     -0.093372942853
   29  H  2  Y       0.045034228405     -0.288458181172     -0.066786783955     -0.093372942853     -0.234381788812
   30  H  2  Z       0.318259420531      0.270276925327     -0.093372942853      0.120345020491     -0.174683337340
   31  H  2  S       0.225435595590      0.226521253005     -0.000267358218      0.000646403228     -0.000938267929
   32  H  2  X       0.119931283333      0.131194831447      0.048254745092     -0.116667530143     -0.009734402225
   33  H  2  Y      -0.115160094657     -0.190432066947     -0.031128987669     -0.009734402225     -0.109244185476
   34  H  2  Z       0.420887293226      0.317955750235     -0.009734402225     -0.011619950061      0.016866602774
   35  H  3  S       0.215380927385      0.211952502313      0.068175245336      0.037973518782      0.004795303821
   36  H  3  S       0.378801778248      0.378337077639      0.009240708892      0.005147062265      0.000649972089
   37  H  3  X      -0.268614011092     -0.261749125494     -0.086167198686     -0.047995012289     -0.009601846754
   38  H  3  Y       0.024210547886     -0.033053733812      0.381423132367     -0.009601846754      0.026828503443
   39  H  3  Z      -0.018893746367      0.013968103852     -0.009601846754      0.393313463011      0.049667705619
   40  H  3  S       0.224514611561      0.224496431065      0.000361524546      0.000201368680      0.000025428879
   41  H  3  X      -0.459255745030     -0.458518527451      0.002635812006      0.001468143697     -0.001031138846
   42  H  3  Y      -0.038023670477     -0.057901814670      0.135110850611     -0.001031138846      0.009503413960
   43  H  3  Z      -0.032303086235     -0.021127278320     -0.001031138846      0.136387748913      0.017223073198
   44  H  4  S       0.365824923078      0.332360102644     -0.139054164369     -0.123145747319      0.237954014253
   45  H  4  S       0.399310333421      0.394779834595     -0.018825283396     -0.016671586952      0.032214437977
   46  H  4  X       0.207840293828      0.183394989645      0.179921714085      0.159337866942      0.173820094789
   47  H  4  Y      -0.076563414730     -0.354373374070      0.050594384706      0.173820094789     -0.086578758674
   48  H  4  Z      -0.355663078946     -0.025972617798      0.173820094789      0.008253875856     -0.015948929913
   49  H  4  S       0.225338593000      0.225161407887     -0.000736245630     -0.000652015844      0.001259887497
   50  H  4  X       0.179388193199      0.176766141321      0.085699652317      0.075895229585      0.018644288598
   51  H  4  Y      -0.235092884433     -0.341564478083     -0.028936875638      0.018644288598      0.049517723896
   52  H  4  Z      -0.306974917831     -0.203710268594      0.018644288598     -0.033478402711      0.064690178015

                     16         17         18         19         20

   16  N  1  S       1.000000000000
   17  N  1  X      -0.000000000000      1.000000000000
   18  N  1  Y      -0.000000000000      0.000000000000      1.000000000000
   19  N  1  Z       0.000000000000      0.000000000000      0.000000000000      1.000000000000
   20  N  1 XX       0.670944976208     -0.000000000000     -0.000000000000     -0.000000000000      1.000000000000
   21  N  1 YY       0.670944976208     -0.000000000000     -0.000000000000     -0.000000000000      0.333333333333
   22  N  1 ZZ       0.670944976208     -0.000000000000     -0.000000000000     -0.000000000000      0.333333333333
   23  N  1 XY       0.000000000000     -0.000000000000     -0.000000000000     -0.000000000000      0.000000000000
   24  N  1 XZ       0.000000000000     -0.000000000000     -0.000000000000     -0.000000000000      0.000000000000
   25  N  1 YZ       0.000000000000     -0.000000000000     -0.000000000000     -0.000000000000      0.000000000000
   26  H  2  S       0.395078369912     -0.076850836985      0.111550611958     -0.269700614069      0.209644178273
   27  H  2  S       0.794937755000     -0.120830613107      0.175388185270     -0.424043404490      0.540741990562
   28  H  2  X       0.020264085396      0.155606444543      0.005446765100     -0.013168873450     -0.117833465311
   29  H  2  Y      -0.029413747661      0.005446765100      0.151452803291      0.019114897766     -0.042140201114
   30  H  2  Z       0.071114856899     -0.013168873450      0.019114897766      0.113144004174      0.101884139566
   31  H  2  S       0.847425867346     -0.067689728866      0.098253070162     -0.237550587054      0.474783603079
   32  H  2  X       0.082069660684      0.660556416192      0.017718352891     -0.042838408244     -0.022558461808
   33  H  2  Y      -0.119125844710      0.017718352891      0.647044601354      0.062180853747     -0.166139136955
   34  H  2  Z       0.288015573431     -0.042838408244      0.062180853747      0.522425894818      0.401681590724
   35  H  3  S       0.392676893079      0.301760636826      0.038106395755      0.021225210526      0.616086091837
   36  H  3  S       0.791312649635      0.475084139049      0.059993723536      0.033416422284      0.682619327836
   37  H  3  X      -0.079513685091      0.100259785741     -0.007345882264     -0.004091646414      0.128535770041
   38  H  3  Y      -0.010041004632     -0.007345882264      0.157503433887     -0.000516693957     -0.055583057382
   39  H  3  Z      -0.005592825902     -0.004091646414     -0.000516693957      0.158143275591     -0.030959687245
   40  H  3  S       0.845526322114      0.266711131171      0.033680336918      0.018759901783      0.484001493207
   41  H  3  X      -0.322528933872      0.480257740746     -0.023928228530     -0.013327990696     -0.066264842549
   42  H  3  Y      -0.040729020610     -0.023928228530      0.666721264876     -0.001683061427     -0.076025933981
   43  H  3  Z      -0.022686008998     -0.013327990696     -0.001683061427      0.668805463612     -0.042346341663
   44  H  4  S       0.392772964587     -0.110104785142      0.212755017395      0.188414893807      0.236410508272
   45  H  4  S       0.791457779405     -0.173336843702      0.334938060588      0.296619651514      0.546933364570
   46  H  4  X       0.029013324072      0.150725343445      0.014961481530      0.013249821265     -0.157762248194
   47  H  4  Y      -0.056062325172      0.014961481530      0.129558187504     -0.025602574403     -0.096335058889
   48  H  4  Z      -0.049648544947      0.013249821265     -0.025602574403      0.135794670284     -0.085313898176
   49  H  4  S       0.845602454729     -0.097302587225      0.188017383722      0.166507355838      0.474222361581
   50  H  4  X       0.117678563826      0.644643894783      0.048732404295      0.043157199734     -0.028038198555
   51  H  4  Y      -0.227389798378      0.048732404295      0.575698423104     -0.083392477160     -0.323631937831
   52  H  4  Z      -0.201375390525      0.043157199734     -0.083392477160      0.596011839235     -0.286606999664

                     21         22         23         24         25

   21  N  1 YY       1.000000000000
   22  N  1 ZZ       0.333333333333      1.000000000000
   23  N  1 XY       0.000000000000      0.000000000000      1.000000000000
   24  N  1 XZ       0.000000000000      0.000000000000      0.000000000000      1.000000000000
   25  N  1 YZ       0.000000000000      0.000000000000      0.000000000000      0.000000000000      1.000000000000
   26  H  2  S       0.241318001052      0.533443882964     -0.071940056038      0.173932504260     -0.252466701089
   27  H  2  S       0.551968502654      0.655509990801     -0.025498529643      0.061648869351     -0.089484635073
   28  H  2  X       0.035451826063      0.094663805193      0.170035759258     -0.411102618627     -0.051173326163
   29  H  2  Y       0.161718889295     -0.137406511286     -0.106023259028     -0.051173326163     -0.372078420836
   30  H  2  Z       0.124414770666     -0.183195831238     -0.051173326163     -0.003465102758      0.005029669790
   31  H  2  S       0.475591343014      0.483041082897     -0.001834601923      0.004435594359     -0.006438358834
   32  H  2  X       0.117455173257      0.145091997889      0.165431969318     -0.399971841734     -0.023884833134
   33  H  2  Y       0.028394557322     -0.210604097362     -0.108781311093     -0.023884833134     -0.381757539044
   34  H  2  Z       0.412197623286      0.028338058007     -0.023884833134     -0.060912926670      0.088416398738
   35  H  3  S       0.184926419607      0.180107126140      0.095833074260      0.053378891816      0.006740697521
   36  H  3  S       0.528378905837      0.526654881291      0.034282737388      0.019095438024      0.002411375871
   37  H  3  X      -0.095542708065     -0.091690782130     -0.014403433561     -0.008022692873     -0.005387650240
   38  H  3  Y       0.059749428086     -0.011578730969      0.482829330455     -0.005387650240      0.033961202809
   39  H  3  Z      -0.006720273771      0.033551286446     -0.005387650240      0.489501061882      0.061814295539
   40  H  3  S       0.472837392764      0.472712605870      0.002481424251      0.001382149928      0.000174538179
   41  H  3  X      -0.439613186815     -0.437797641236      0.022490883086      0.012527391241     -0.002539385423
   42  H  3  Y       0.012143551595     -0.055285176865      0.459437203639     -0.002539385423      0.032315849653
   43  H  3  Z      -0.030921469872      0.006891643366     -0.002539385423      0.462581820824      0.058414928199
   44  H  4  S       0.395920676375      0.348924168224     -0.195281495151     -0.172940420498      0.334172053683
   45  H  4  S       0.603974396519      0.587168387505     -0.069832902419     -0.061843706695      0.119500336671
   46  H  4  X       0.096365915990      0.082662465489      0.290489634852      0.257256324071      0.097439371064
   47  H  4  Y       0.214970935697     -0.159728337513     -0.069775068353      0.097439371064      0.119401369134
   48  H  4  Z      -0.164904493518      0.213827091904      0.097439371064     -0.093510140860      0.180689255418
   49  H  4  S       0.478350066403      0.477133920024     -0.005053372953     -0.004475244532      0.008647496356
   50  H  4  X       0.189399191550      0.182942818499      0.300365343822      0.266002207856      0.045908505258
   51  H  4  Y       0.011834763648     -0.353499645650     -0.117489537681      0.045908505258      0.201051922829
   52  H  4  Z      -0.324106064208      0.021529169674      0.045908505258     -0.128672303836      0.248632956375

                     26         27         28         29         30

   26  H  2  S       1.000000000000
   27  H  2  S       0.684860251493      1.000000000000
   28  H  2  X      -0.000000000000      0.000000000000      1.000000000000
   29  H  2  Y      -0.000000000000      0.000000000000      0.000000000000      1.000000000000
   30  H  2  Z      -0.000000000000      0.000000000000      0.000000000000      0.000000000000      1.000000000000
   31  H  2  S       0.303730195084      0.707408819571      0.000000000000     -0.000000000000      0.000000000000
   32  H  2  X       0.000000000000     -0.000000000000      0.467431074493      0.000000000000      0.000000000000
   33  H  2  Y       0.000000000000     -0.000000000000      0.000000000000      0.467431074493      0.000000000000
   34  H  2  Z      -0.000000000000      0.000000000000      0.000000000000      0.000000000000      0.467431074493
   35  H  3  S       0.100215187826      0.284547550347      0.104363247276     -0.020094631699      0.079865826633
   36  H  3  S       0.284547550347      0.578144350376      0.132554403136     -0.025522700573      0.101439608834
   37  H  3  X      -0.104363247276     -0.132554403136     -0.115503580561      0.029593295540     -0.117618130379
   38  H  3  Y       0.020094631699      0.025522700573      0.029593295540      0.032493773617      0.022646794468
   39  H  3  Z      -0.079865826633     -0.101439608834     -0.117618130379      0.022646794468     -0.051817543487
   40  H  3  S       0.236163869715      0.570679084833      0.029552447324     -0.005690178873      0.022615534646
   41  H  3  X      -0.373537220923     -0.453693196293     -0.049747792904      0.040735560033     -0.161902901440
   42  H  3  Y       0.071922760897      0.087356401048      0.040735560033      0.153972509142      0.031173610062
   43  H  3  Z      -0.285855985759     -0.347196768071     -0.161902901440      0.031173610062      0.037916873676
   44  H  4  S       0.112045224126      0.297908532331     -0.010640227813      0.032173416927      0.144314932280
   45  H  4  S       0.297908532331      0.594959206756     -0.012392335402      0.037471356874      0.168079018216
   46  H  4  X       0.010640227813      0.012392335402      0.043862484796      0.004367906699      0.019592390850
   47  H  4  Y      -0.032173416927     -0.037471356874      0.004367906699      0.032099547142     -0.059242543536
   48  H  4  Z      -0.144314932280     -0.168079018216      0.019592390850     -0.059242543536     -0.220427383934
   49  H  4  S       0.239293465902      0.577128524206     -0.002666003764      0.008061335917      0.036159390519
   50  H  4  X       0.035011672616      0.041643594627      0.169279409959      0.005357515640      0.024031314688
   51  H  4  Y      -0.105866637464     -0.125919929147      0.005357515640      0.154851418063     -0.072664751203
   52  H  4  Z      -0.474868325337     -0.564818032506      0.024031314688     -0.072664751203     -0.154888939517

                     31         32         33         34         35

   31  H  2  S       1.000000000000
   32  H  2  X       0.000000000000      1.000000000000
   33  H  2  Y       0.000000000000      0.000000000000      1.000000000000
   34  H  2  Z      -0.000000000000      0.000000000000      0.000000000000      1.000000000000
   35  H  3  S       0.236163869715      0.373537220923     -0.071922760897      0.285855985759      1.000000000000
   36  H  3  S       0.570679084833      0.453693196293     -0.087356401048      0.347196768071      0.684860251493
   37  H  3  X      -0.029552447324     -0.049747792904      0.040735560033     -0.161902901440     -0.000000000000
   38  H  3  Y       0.005690178873      0.040735560033      0.153972509142      0.031173610062     -0.000000000000
   39  H  3  Z      -0.022615534646     -0.161902901440      0.031173610062      0.037916873676     -0.000000000000
   40  H  3  S       0.874966586623      0.163070938557     -0.031398509884      0.124792929001      0.303730195084
   41  H  3  X      -0.163070938557      0.116520569584      0.079778169795     -0.317077196210      0.000000000000
   42  H  3  Y       0.031398509884      0.079778169795      0.515494655960      0.061051659892      0.000000000000
   43  H  3  Z      -0.124792929001     -0.317077196210      0.061051659892      0.288206601389     -0.000000000000
   44  H  4  S       0.239293465902     -0.035011672616      0.105866637464      0.474868325337      0.104003047919
   45  H  4  S       0.577128524206     -0.041643594627      0.125919929147      0.564818032506      0.288927610944
   46  H  4  X       0.002666003764      0.169279409959      0.005357515640      0.024031314688      0.118898715871
   47  H  4  Y      -0.008061335917      0.005357515640      0.154851418063     -0.072664751203     -0.050407306729
   48  H  4  Z      -0.036159390519      0.024031314688     -0.072664751203     -0.154888939517     -0.048255495410
   49  H  4  S       0.881102901242     -0.014683348093      0.044398812544      0.199152351152      0.237201216280
   50  H  4  X       0.014683348093      0.545346424868      0.010260273361      0.046022797599      0.413844104882
   51  H  4  Y      -0.044398812544      0.010260273361      0.517715121319     -0.139161555690     -0.175449890942
   52  H  4  Z      -0.199152351152      0.046022797599     -0.139161555690     -0.075474139042     -0.167960201735

                     36         37         38         39         40

   36  H  3  S       1.000000000000
   37  H  3  X      -0.000000000000      1.000000000000
   38  H  3  Y       0.000000000000      0.000000000000      1.000000000000
   39  H  3  Z      -0.000000000000      0.000000000000      0.000000000000      1.000000000000
   40  H  3  S       0.707408819571      0.000000000000      0.000000000000     -0.000000000000      1.000000000000
   41  H  3  X      -0.000000000000      0.467431074493      0.000000000000      0.000000000000      0.000000000000
   42  H  3  Y      -0.000000000000      0.000000000000      0.467431074493      0.000000000000      0.000000000000
   43  H  3  Z      -0.000000000000      0.000000000000      0.000000000000      0.467431074493      0.000000000000
   44  H  4  S       0.288927610944     -0.118898715871      0.050407306729      0.048255495410      0.237201216280
   45  H  4  S       0.583688983841     -0.146732007979      0.062207276832      0.059551742722      0.572818218014
   46  H  4  X       0.146732007979     -0.152514391422      0.081797828742      0.078306003744      0.032327088310
   47  H  4  Y      -0.062207276832      0.081797828742      0.005748693432     -0.033197959461     -0.013705122416
   48  H  4  Z      -0.059551742722      0.078306003744     -0.033197959461      0.008646228837     -0.013120071568
   49  H  4  S       0.572818218014     -0.032327088310      0.013705122416      0.013120071568      0.877004755858
   50  H  4  X       0.499158582553     -0.090747716233      0.108354227315      0.103728750020      0.178269528460
   51  H  4  Y      -0.211619104485      0.108354227315      0.118896898247     -0.043975974682     -0.075577660664
   52  H  4  Z      -0.202585406519      0.103728750020     -0.043975974682      0.122735144504     -0.072351365188

                     41         42         43         44         45

   41  H  3  X       1.000000000000
   42  H  3  Y       0.000000000000      1.000000000000
   43  H  3  Z       0.000000000000      0.000000000000      1.000000000000
   44  H  4  S      -0.413844104882      0.175449890942      0.167960201735      1.000000000000
   45  H  4  S      -0.499158582553      0.211619104485      0.202585406519      0.684860251493      1.000000000000
   46  H  4  X      -0.090747716233      0.108354227315      0.103728750020     -0.000000000000      0.000000000000
   47  H  4  Y       0.108354227315      0.118896898247     -0.043975974682     -0.000000000000     -0.000000000000
   48  H  4  Z       0.103728750020     -0.043975974682      0.122735144504      0.000000000000     -0.000000000000
   49  H  4  S      -0.178269528460      0.075577660664      0.072351365188      0.303730195084      0.707408819571
   50  H  4  X       0.039916479016      0.210630816372      0.201639306924      0.000000000000      0.000000000000
   51  H  4  Y       0.210630816372      0.447446645491     -0.085485316795      0.000000000000     -0.000000000000
   52  H  4  Z       0.201639306924     -0.085485316795      0.454907849013     -0.000000000000     -0.000000000000

                     46         47         48         49         50

   46  H  4  X       1.000000000000
   47  H  4  Y       0.000000000000      1.000000000000
   48  H  4  Z       0.000000000000      0.000000000000      1.000000000000
   49  H  4  S       0.000000000000     -0.000000000000     -0.000000000000      1.000000000000
   50  H  4  X       0.467431074493      0.000000000000      0.000000000000      0.000000000000      1.000000000000
   51  H  4  Y       0.000000000000      0.467431074493      0.000000000000      0.000000000000      0.000000000000
   52  H  4  Z       0.000000000000      0.000000000000      0.467431074493      0.000000000000      0.000000000000

                     51         52

   51  H  4  Y       1.000000000000
   52  H  4  Z       0.000000000000      1.000000000000
 BARE NUCLEUS HAMILTONIAN INTEGRALS (H=T+V)

                      1          2          3          4          5

    1  N  1  S     -26.017168757746
    2  N  1  S       6.279145189287     -8.604654066673
    3  N  1  S      -4.605781906626     -4.354189770674     -6.432175880300
    4  N  1  X      -0.009443393936     -0.053549563252     -0.054250231977     -7.231653258603
    5  N  1  Y      -0.031167511791     -0.176428077363     -0.177876993120      0.021941350488     -7.180288039617
    6  N  1  Z       0.006041067548      0.034003584866      0.033749298442     -0.007976970390     -0.009315603166
    7  N  1  X      -0.001875679328     -0.037292649815     -0.069321172246     -3.403063419891      0.018977561619
    8  N  1  Y      -0.006175984841     -0.121998531141     -0.223156979618      0.018977561619     -3.358236642904
    9  N  1  Z       0.001188005358      0.022974182601      0.039768914990     -0.006677969606     -0.008494223939
   10  N  1 XX      -1.400033685161     -4.090558865705     -4.408093607267     -0.137139067745     -0.088294676891
   11  N  1 YY      -1.398272410183     -4.044502855606     -4.346272250814     -0.004924732051     -0.238665265770
   12  N  1 ZZ      -1.400182043997     -4.094127117846     -4.411800271954      0.007293408137     -0.115983941618
   13  N  1 XY       0.001305198095      0.034029735653      0.045328189650     -0.152930866413     -0.008529886126
   14  N  1 XZ      -0.000477241197     -0.012312199570     -0.015945649319      0.009808467203      0.008399918052
   15  N  1 YZ      -0.000548777377     -0.014565412739     -0.020297948418      0.008399918052     -0.002449434419
   16  N  1  S      -1.817572699141     -2.340504932121     -4.031868532166     -0.029425564787     -0.096170147024
   17  N  1  X      -0.000414570667     -0.010338755104     -0.027046518804     -0.937379938644      0.005544202709
   18  N  1  Y      -0.001362401521     -0.033696757322     -0.086371066194      0.005544202709     -0.924232104270
   19  N  1  Z       0.000260431482      0.006267461768      0.014952119733     -0.001922305312     -0.002538072802
   20  N  1 XX      -0.219296554341     -1.568190391071     -2.794614109071     -0.066877909702     -0.038686853382
   21  N  1 YY      -0.218804346992     -1.546536231071     -2.742959649114      0.000319401812     -0.101521433050
   22  N  1 ZZ      -0.219330269831     -1.569412984055     -2.795690181622      0.006927350574     -0.053768723422
   23  N  1 XY       0.000362248700      0.015852575109      0.037217858656     -0.067007595643      0.000553220167
   24  N  1 XZ      -0.000129213552     -0.005544666205     -0.012240576776      0.001788494140      0.004807607328
   25  N  1 YZ      -0.000158703743     -0.007161918789     -0.018349147602      0.004807607328     -0.005120368253
   26  H  2  S      -1.436344650988     -2.056296222802     -3.084718088688      0.576610736661     -0.895769190615
   27  H  2  S      -1.977474093365     -2.427098484931     -4.014032012601      0.213715784785     -0.436951040022
   28  H  2  X      -0.742557272070     -0.632946714780     -0.735091537575     -1.183535750958     -0.408271286981
   29  H  2  Y       1.074997000141      0.874066330054      0.999394516226     -0.377837255847     -0.866200419212
   30  H  2  Z      -2.603565233072     -2.185819019901     -2.526845164531      0.937512608251     -1.432350746618
   31  H  2  S      -0.962848947109     -1.331929579407     -2.448906802190      0.017863155240     -0.103116050277
   32  H  2  X      -0.716210057660     -0.723554088435     -1.050371861243     -1.473264432194     -0.144181547433
   33  H  2  Y       1.036239606598      0.978351501827      1.370135201936     -0.098917988036     -1.317560544780
   34  H  2  Z      -2.510585378735     -2.478478672417     -3.556821303448      0.262140006186     -0.532208739955
   35  H  3  S      -1.369230681071     -1.991173125521     -3.010175800815     -2.241921330381     -0.321220851714
   36  H  3  S      -1.951166502202     -2.398724631873     -3.973200987778     -0.961654559182     -0.205153970472
   37  H  3  X       2.724666748641      2.379970665034      2.735689710273      2.649653390354      0.562054021807
   38  H  3  Y       0.342284507607      0.271785470429      0.301293489696      0.485104673268     -1.313923439371
   39  H  3  Z       0.192015632291      0.172773155950      0.200303980020      0.288388230732      0.038556101069
   40  H  3  S      -0.959655343747     -1.327544197842     -2.441336411471     -0.150508668077     -0.070271465566
   41  H  3  X       2.781453993426      2.747561522302      3.941218055063     -0.206559733398      0.281713045038
   42  H  3  Y       0.349032119290      0.299517980770      0.396006993829      0.163781370614     -1.477711478901
   43  H  3  Z       0.196120353425      0.203046110167      0.296822725502      0.092716536751      0.015909509680
   44  H  4  S      -1.372021809130     -1.996609598053     -3.017787529830      0.803270731412     -1.615920386379
   45  H  4  S      -1.952291997993     -2.401542528108     -3.978530826926      0.314657740359     -0.747121093439
   46  H  4  X      -0.997764408555     -0.883815007526     -1.020984750529     -0.856347186104     -1.062269410867
   47  H  4  Y       1.924996705463      1.659409706191      1.898226316781     -1.015142395473      0.640076579064
   48  H  4  Z       1.706815275774      1.502977653782      1.732397952489     -0.913959790426      1.814911520193
   49  H  4  S      -0.959793517018     -1.327979234553     -2.442346027910      0.032612338114     -0.147993905390
   50  H  4  X      -1.016280745114     -1.024424560525     -1.485346659109     -1.369635354839     -0.368199213565
   51  H  4  Y       1.960095232242      1.900496838692      2.699409569982     -0.296678805549     -0.799009182179
   52  H  4  Z       1.738346105527      1.736800856964      2.505128231050     -0.276614406991      0.637142562699

                      6          7          8          9         10

    6  N  1  Z      -7.235791004721
    7  N  1  X      -0.006677969606     -4.272131359696
    8  N  1  Y      -0.008494223939      0.036077436860     -4.185345089217
    9  N  1  Z      -3.405759185780     -0.011832852216     -0.017851436484     -4.273807266602
   10  N  1 XX       0.005662921180     -0.152154811959     -0.086992557918      0.001958330322     -5.252392977198
   11  N  1 YY      -0.001414181621      0.001386642807     -0.227474999029     -0.007236131363     -2.438480762886
   12  N  1 ZZ       0.080449612508      0.016605808943     -0.121733518328      0.085738009934     -2.455354950934
   13  N  1 XY       0.008399918052     -0.150675530194      0.002401735793      0.011085048383      0.015997376125
   14  N  1 XZ       0.012632553454      0.003391927616      0.011085048383      0.028762104790     -0.020330207756
   15  N  1 YZ      -0.200890079744      0.011085048383     -0.012533347171     -0.210848638728     -0.012179165846
   16  N  1  S       0.018052976209     -0.056150329462     -0.179300585730      0.031032374429     -2.470851893449
   17  N  1  X      -0.001922305312     -2.141556037384      0.015273524578     -0.004875022712     -0.047157792746
   18  N  1  Y      -0.002538072802      0.015273524578     -2.104569035779     -0.007823317882     -0.026512994571
   19  N  1  Z      -0.938053130862     -0.004875022712     -0.007823317882     -2.141726610399      0.000407751090
   20  N  1 XX       0.001032587573     -0.162267669454     -0.093512846544      0.001768879442     -2.754808429014
   21  N  1 YY      -0.002956245989      0.000077200237     -0.245693698313     -0.008036976094     -1.134144268945
   22  N  1 ZZ       0.037766144861      0.015269814223     -0.128607361153      0.086381263317     -1.143579861599
   23  N  1 XY       0.004807607328     -0.161969001374      0.000133714733      0.012095813588      0.006932749608
   24  N  1 XZ       0.011998523156      0.003063789065      0.012095813588      0.026448094057     -0.012247695378
   25  N  1 YZ      -0.093130160825      0.012095813588     -0.013920450934     -0.222754483744     -0.007891519211
   26  H  2  S       2.071515678061      0.724098501285     -1.114099470022      2.591165483274     -1.644240211209
   27  H  2  S       0.857905845778      0.402543571437     -0.786350715169      1.582730118971     -2.461078336428
   28  H  2  X       0.961935021365     -1.483064265271     -0.252294794772      0.598616811252     -0.030662432684
   29  H  2  Y      -1.360995092315     -0.222235174063     -1.298240725523     -0.809138287646      0.782549060370
   30  H  2  Z       1.893276069874      0.575105105052     -0.880501894920      0.400683383111     -1.936326511726
   31  H  2  S       0.129659783329      0.057259080245     -0.243014807205      0.339412759545     -1.421581703747
   32  H  2  X       0.300538196003     -2.610224355851     -0.186110059154      0.400548579653     -0.621593965685
   33  H  2  Y      -0.429096418698     -0.116849756122     -2.398436561873     -0.548029864131      1.055826194227
   34  H  2  Z      -0.500224113363      0.342566518269     -0.706930044106     -1.334099227541     -2.644236238995
   35  H  3  S      -0.150182630649     -2.858073471936     -0.402257335177     -0.193517534107     -3.109195445131
   36  H  3  S      -0.050066139869     -1.782323057412     -0.358081197090     -0.099616056341     -2.680423721739
   37  H  3  X       0.273674568898      0.910458384070      0.352925339668      0.170968651070      2.534804190899
   38  H  3  Y       0.031285600958      0.275352178322     -1.564094262640      0.016431972313      0.545024610105
   39  H  3  Z      -1.367692779658      0.184800810258      0.023635033772     -1.597523103652      0.328966605170
   40  H  3  S       0.000433670462     -0.394387924707     -0.155193683517     -0.006762486841     -1.432721703968
   41  H  3  X       0.068071344688     -0.941735468034      0.380072273269      0.090042986900      2.443923401892
   42  H  3  Y       0.004502242994      0.200067678977     -2.603585464260      0.000312695832      0.375135264643
   43  H  3  Z      -1.524321694678      0.124707510039      0.017351284765     -2.677720678325      0.230170825174
   44  H  4  S      -1.387158945313      1.026640026769     -2.053494965136     -1.770791497018     -1.700912491530
   45  H  4  S      -0.567033890211      0.591633603038     -1.366450580207     -1.060725112973     -2.450701397970
   46  H  4  X      -0.923175464397     -1.276055647135     -0.670947862419     -0.585231457665     -0.099813959697
   47  H  4  Y       1.752073645199     -0.623139894977     -0.358835032690      1.077954624212      1.582219919855
   48  H  4  Z       0.179621816626     -0.575781702811      1.141505453010     -0.626908579337      1.422596990832
   49  H  4  S      -0.073670935604      0.096885292977     -0.363723406753     -0.205519752229     -1.418249927345
   50  H  4  X      -0.291250549525     -2.473972743028     -0.486438848139     -0.392722468332     -0.866905611079
   51  H  4  Y       0.543035868713     -0.376186005537     -1.719298612377      0.700910482378      2.049310171065
   52  H  4  Z      -1.040490537689     -0.369037713405      0.843812783709     -2.037047030948      1.850602809791

                     11         12         13         14         15

   11  N  1 YY      -5.094248461315
   12  N  1 ZZ      -2.461246153963     -5.240236328979
   13  N  1 XY       0.054665956296      0.041450106711     -4.047442288658
   14  N  1 XZ       0.009877291992     -0.029611440392     -0.021094934039     -4.098064852802
   15  N  1 YZ      -0.042981496134      0.006189864126      0.017107971572      0.071793690803     -4.115738461888
   16  N  1  S      -2.433125875981     -2.472785556405      0.027554824632     -0.009554705360     -0.012612658947
   17  N  1  X       0.000675545831      0.005418392252     -0.045921853658      0.000706245605      0.003529684186
   18  N  1  Y      -0.068996187941     -0.037369798449      0.001170079702      0.003529684186     -0.004335985109
   19  N  1  Z      -0.002503382170      0.026210035817      0.003529684186      0.009384930677     -0.064726389582
   20  N  1 XX      -1.134144268945     -1.143579861599      0.006932749608     -0.012247695378     -0.007891519211
   21  N  1 YY      -2.657415891649     -1.149188136950      0.033237057901      0.007348339974     -0.027985664732
   22  N  1 ZZ      -1.149188136950     -2.743716127472      0.026625170938     -0.017942606479      0.004672875767
   23  N  1 XY       0.033237057901      0.026625170938     -2.320549080359     -0.013668512223      0.012727698187
   24  N  1 XZ       0.007348339974     -0.017942606479     -0.013668512223     -2.348855858323      0.046116148825
   25  N  1 YZ      -0.027985664732      0.004672875767      0.012727698187      0.046116148825     -2.365680684376
   26  H  2  S      -1.776475094897     -2.874056068022      0.284821815536     -0.646845649341      0.986719400066
   27  H  2  S      -2.463692938495     -2.657597578940      0.069263115479     -0.100966916045      0.161694583761
   28  H  2  X      -0.611117195633     -1.075645759910     -0.589597920978      1.373554551160      0.418128032662
   29  H  2  Y       0.052696530140      1.513017712637      0.297068093241      0.381614484088      1.050406066036
   30  H  2  Z      -2.139716736216     -1.837741272282      0.417657809480     -0.483062905944      0.745650400072
   31  H  2  S      -1.403916172446     -1.434813668601      0.018665850062     -0.010008664238      0.005518219707
   32  H  2  X      -0.754322822232     -0.812832030227     -0.286689720753      0.558946094413      0.057398813741
   33  H  2  Y       0.717045843640      1.136192180737      0.135373519680      0.049935781914      0.502800772267
   34  H  2  Z      -2.654551668038     -2.157238360275      0.085240982978      0.063766585300     -0.141972926469
   35  H  3  S      -1.510425978118     -1.495831190327     -0.387370988014     -0.191857763638     -0.030472528250
   36  H  3  S      -2.395519200257     -2.420525300630     -0.062133630733     -0.033784701705     -0.016302939588
   37  H  3  X       1.961265047569      1.931227569146      0.400694027182      0.192788238843      0.049607952343
   38  H  3  Y      -0.053084800040      0.225894549824     -1.695893461956      0.036203308857     -0.118089490692
   39  H  3  Z       0.138349267416      0.001758771276      0.045595046003     -1.756033304185     -0.251953864532
   40  H  3  S      -1.396223619057     -1.417480662198      0.007515101231     -0.006329758058     -0.007674329690
   41  H  3  X       2.891195272581      2.927806494714     -0.058588719788     -0.001892108756      0.025912485798
   42  H  3  Y       0.173087275908      0.318550994789     -0.640008872339      0.008766401195     -0.048192649951
   43  H  3  Z       0.200332369138      0.186142353957      0.009525864387     -0.642798312942     -0.168600948431
   44  H  4  S      -2.316678751461     -2.114601739770      0.730688678327      0.621333780884     -1.250488120430
   45  H  4  S      -2.538177810166     -2.517343118700      0.139396306375      0.083403434552     -0.216028622878
   46  H  4  X      -1.209303917984     -1.085282292105     -0.838963798955     -0.728221616409     -0.762287907611
   47  H  4  Y       0.829147800804      2.057068156632     -0.196000262751     -0.714889981589      0.337965816254
   48  H  4  Z       2.066048278816      0.577801165815     -0.757956501067      0.000168183985      0.011470176976
   49  H  4  S      -1.406652278115     -1.423113004935      0.022657351261     -0.000868506566     -0.020405920001
   50  H  4  X      -1.122594567738     -1.107216720894     -0.460438935028     -0.366991876622     -0.099349639405
   51  H  4  Y       1.542866141293      2.096451938884      0.111292667172     -0.069318438175     -0.212458286180
   52  H  4  Z       1.920375680394      1.466710935867     -0.110162681574      0.181400664110     -0.373639286343

                     16         17         18         19         20

   16  N  1  S      -3.705361100534
   17  N  1  X      -0.033957062010     -2.378021810797
   18  N  1  Y      -0.107402956335      0.010115566378     -2.353345189260
   19  N  1  Z       0.017933518418     -0.003130230065     -0.005376101727     -2.377739707560
   20  N  1 XX      -2.603440430503     -0.078745571968     -0.048784142034      0.001948928359     -3.584868881918
   21  N  1 YY      -2.558845046758     -0.002471753667     -0.131054470847     -0.002391435225     -1.368563152059
   22  N  1 ZZ      -2.603716125637      0.004105471081     -0.064040112731      0.041150979630     -1.381117222143
   23  N  1 XY       0.031919128190     -0.084496612607     -0.004281202935      0.005392895007      0.011774065553
   24  N  1 XZ      -0.010218175375      0.003375642937      0.005392895007      0.007110884502     -0.015205398164
   25  N  1 YZ      -0.016289739067      0.005392895007     -0.004142087314     -0.110920728972     -0.010281572176
   26  H  2  S      -2.094066276021      0.324349176577     -0.493902444847      1.156525958901     -1.090996595640
   27  H  2  S      -3.294489230765      0.323498402004     -0.571012150281      1.220481366299     -2.227597931482
   28  H  2  X      -0.299854235722     -0.651839596012     -0.057877119737      0.138088308871      0.327199024195
   29  H  2  Y       0.387289711362     -0.047531398060     -0.612862749219     -0.175573314523      0.271839041623
   30  H  2  Z      -1.014905774737      0.130019269904     -0.200168248407     -0.226279049184     -0.692022642165
   31  H  2  S      -2.729788778688      0.116974342605     -0.287724022271      0.512609535366     -1.762471743067
   32  H  2  X      -0.597804566667     -1.921104205982     -0.082478744578      0.184493643336     -0.183344218561
   33  H  2  Y       0.715730677205     -0.049129303970     -1.833491156907     -0.234962193553      0.689683093929
   34  H  2  Z      -1.970994748748      0.156642353047     -0.311572109150     -1.349062205374     -1.796228685089
   35  H  3  S      -2.063478271798     -1.288938271818     -0.178002913397     -0.087957329984     -2.729535974049
   36  H  3  S      -3.271111778842     -1.375440784981     -0.240436475697     -0.084235445551     -2.722939318226
   37  H  3  X       1.102276115838     -0.107928049448      0.081240813705      0.038749726841      0.151277412541
   38  H  3  Y       0.107586312232      0.054303555937     -0.670870165468      0.002846729829      0.245309070329
   39  H  3  Z       0.083075487808      0.043471567268      0.005337715052     -0.678308753360      0.163392382017
   40  H  3  S      -2.722773509475     -0.586410132296     -0.151548283005     -0.026317547882     -1.801812398412
   41  H  3  X       2.182100263122     -1.172922957541      0.163694636274      0.042248182551      0.817175144281
   42  H  3  Y       0.175531222361      0.077028300009     -1.920424565209     -0.001312617880      0.260476937594
   43  H  3  Z       0.172158848503      0.058411366329      0.006824400707     -1.952911077570      0.178272798322
   44  H  4  S      -2.068187140760      0.464278526109     -0.922879658939     -0.799724256473     -1.190769659681
   45  H  4  S      -3.275813781368      0.472261115019     -1.025002490501     -0.833062835407     -2.244350212991
   46  H  4  X      -0.417691697824     -0.604534049419     -0.155158398153     -0.135679628609      0.427318421893
   47  H  4  Y       0.753626026875     -0.138532838108     -0.400896771475      0.240366576761      0.595425342298
   48  H  4  Z       0.704089717931     -0.132358646795      0.262399657192     -0.456184860155      0.545273317455
   49  H  4  S      -2.724085943469      0.179051031646     -0.476316156562     -0.336536066813     -1.760444677684
   50  H  4  X      -0.842584243785     -1.859207064233     -0.219731549685     -0.182118943474     -0.240856073653
   51  H  4  Y       1.459565805969     -0.166448897913     -1.533507447763      0.309927213262      1.382515939516
   52  H  4  Z       1.404836008508     -0.170406459064      0.378474237272     -1.660527593567      1.276372778194

                     21         22         23         24         25

   21  N  1 YY      -3.458878486854
   22  N  1 ZZ      -1.385710261967     -3.567995845493
   23  N  1 XY       0.042783213191      0.032178330681     -3.185689456177
   24  N  1 XZ       0.008570278281     -0.020925442726     -0.017808205391     -3.223351666428
   25  N  1 YZ      -0.035810230702      0.001420256618      0.014844157418      0.055734503641     -3.237130785902
   26  H  2  S      -1.231770755894     -2.404609163346      0.300568459563     -0.693492966558      1.049312052422
   27  H  2  S      -2.257946708402     -2.628320660111      0.116484556192     -0.204628403938      0.332809517188
   28  H  2  X      -0.231773913135     -0.506143867810     -0.629033945120      1.478090153333      0.243778353310
   29  H  2  Y      -0.483804637919      0.685918521860      0.369320108804      0.216174709526      1.301496502394
   30  H  2  Z      -0.808422503354      0.153979923856      0.241575308543     -0.089378617741      0.142152508656
   31  H  2  S      -1.743805634553     -1.796413202213      0.028105864187     -0.020157080322      0.023840419809
   32  H  2  X      -0.520253650581     -0.608195887398     -0.577104552380      1.199573415988      0.086651587859
   33  H  2  Y       0.020464018401      0.814090958993      0.309013963853      0.071847319390      1.116936031156
   34  H  2  Z      -1.827816620661     -0.662742993289      0.111459099122      0.189100993577     -0.341553357233
   35  H  3  S      -0.985847425497     -0.967076373740     -0.417421083919     -0.210576486407     -0.031576723146
   36  H  3  S      -2.160239839513     -2.178908191513     -0.139618024658     -0.065074914905     -0.022678182963
   37  H  3  X       0.684044309087      0.665970231662      0.131552443181      0.062331986294      0.028672840369
   38  H  3  Y      -0.207425821457      0.070828529203     -1.755088495749      0.019239930071     -0.122647367786
   39  H  3  Z       0.048416881647     -0.092220392544      0.026473833857     -1.788139168438     -0.248127978847
   40  H  3  S      -1.730437208475     -1.755599910123     -0.000729177928     -0.009746757298     -0.011393505529
   41  H  3  X       1.951425472649      1.979613906094     -0.121207988194     -0.032968006503      0.030434108068
   42  H  3  Y      -0.092771190879      0.182157704016     -1.368214317404      0.010569096206     -0.099336947945
   43  H  3  Z       0.134232476541      0.067798281959      0.013465680848     -1.378386489032     -0.290147817122
   44  H  4  S      -1.859608741010     -1.642873797632      0.794588823533      0.683087942130     -1.362074385199
   45  H  4  S      -2.447675263315     -2.381415836784      0.265564912241      0.189330662834     -0.437217555307
   46  H  4  X      -0.542039930393     -0.471232343398     -1.028099183059     -0.895309849128     -0.453554424810
   47  H  4  Y      -0.472718107901      0.872545639166      0.164620586597     -0.418349324756     -0.280698193033
   48  H  4  Z       0.923245347206     -0.493261721721     -0.449169566587      0.269459893401     -0.526275427049
   49  H  4  S      -1.758488055372     -1.771631942477      0.039989079105      0.007626891352     -0.047550394798
   50  H  4  X      -0.817295019023     -0.790433150411     -0.974489329983     -0.796380207370     -0.152399365968
   51  H  4  Y       0.310095307273      1.458238620596      0.320975888225     -0.114705508811     -0.570633201961
   52  H  4  Z       1.394814955917      0.399427529992     -0.160081603670      0.400917876170     -0.829894586754

                     26         27         28         29         30

   26  H  2  S      -4.802198794326
   27  H  2  S      -3.372102590791     -4.053264303096
   28  H  2  X      -0.358999249674     -0.313399558858     -3.210337922519
   29  H  2  Y       0.443541472297      0.382272747399      0.102157898502     -3.263286376961
   30  H  2  Z      -1.199560754587     -1.043298368747     -0.249603079677      0.334991228562     -3.995624503176
   31  H  2  S      -1.509019010279     -2.535959812872     -0.139743974289      0.169312597459     -0.464287516677
   32  H  2  X      -0.198562405549     -0.376179251046     -1.874942621526      0.061166975697     -0.149925597363
   33  H  2  Y       0.236281248936      0.404956906968      0.061166975697     -1.902200928785      0.196417047964
   34  H  2  Z      -0.656182189729     -1.205811479402     -0.149925597363      0.196417047964     -2.343067380318
   35  H  3  S      -0.736328195612     -1.641278863442     -0.698169023878      0.211093373796     -0.713752210712
   36  H  3  S      -1.654072549566     -2.726169969736     -0.784825292251      0.338912640050     -1.058396918796
   37  H  3  X       0.884258500073      1.247414671725      0.835004632920     -0.324407482896      1.098553867664
   38  H  3  Y      -0.094699721627     -0.057982235594     -0.145924628343     -0.228578227609     -0.116024340699
   39  H  3  Z       0.499840183498      0.511069495210      0.685836268340     -0.173144761156      0.363353814816
   40  H  3  S      -1.225423313310     -2.174436339670     -0.248451441397      0.170722261487     -0.496448206394
   41  H  3  X       2.166105507516      2.548266543074      0.427129827665     -0.493703801193      1.553846991724
   42  H  3  Y      -0.297872177755     -0.235434282854     -0.165197518622     -0.700334615777     -0.169967406996
   43  H  3  Z       1.361575899560      1.256010032370      0.756078602567     -0.267756275366      0.133416243092
   44  H  4  S      -0.805850623057     -1.706336811761     -0.010202709627     -0.094137792279     -1.102822895508
   45  H  4  S      -1.716998190459     -2.786145215950     -0.125265728967      0.056913527809     -1.376777373211
   46  H  4  X      -0.166129934943     -0.309116974596     -0.309074207947     -0.005170908212     -0.276436512974
   47  H  4  Y       0.378612194176      0.618500619752      0.020601280463     -0.268090897485      0.648170203093
   48  H  4  Z       1.026691257157      1.187223473403     -0.017351826250      0.214314080520      1.562502307475
   49  H  4  S      -1.239052149927     -2.192787037719     -0.108770261757      0.111816321077     -0.558737873281
   50  H  4  X      -0.330083339813     -0.546255258497     -0.829641441494      0.039706273547     -0.325343960607
   51  H  4  Y       0.784577310091      1.093178242813      0.089559822516     -0.850600398348      0.756557712149
   52  H  4  Z       2.474148783411      2.569523366546      0.152714605209     -0.012802319825      1.393831157537

                     31         32         33         34         35

   31  H  2  S      -2.499865836737
   32  H  2  X      -0.253056953124     -3.063689341258
   33  H  2  Y       0.256985142164      0.094454709517     -3.059309740662
   34  H  2  Z      -0.796713324991     -0.237095199825      0.261523600885     -3.760320039311
   35  H  3  S      -1.214526567805     -1.840831666820      0.471505495371     -1.699020437220     -4.741025836676
   36  H  3  S      -2.168126644515     -1.817747952422      0.605502699202     -2.086169362844     -3.336949466458
   37  H  3  X       0.558171659744      0.730169027295     -0.427435998899      1.468074506690      1.286476344410
   38  H  3  Y       0.011453659541     -0.108508499906     -0.727902221193     -0.069414207170      0.111106649693
   39  H  3  Z       0.131368438451      0.694531490526     -0.164537218279     -0.139515914389      0.099422384272
   40  H  3  S      -2.281912121734     -0.683973778441      0.320889470419     -1.068841549306     -1.494837286323
   41  H  3  X       1.249028809397     -0.014868178176     -0.634200295579      2.169677674831      0.710977541227
   42  H  3  Y      -0.052455189093     -0.190212624689     -1.758316547245     -0.170927060793      0.055407379940
   43  H  3  Z       0.415287306927      0.973102519385     -0.280301822500     -0.832449602955      0.056018754459
   44  H  4  S      -1.230446383098      0.043829765763     -0.344074676928     -2.571066182470     -0.752361313413
   45  H  4  S      -2.188600474171     -0.148696214309     -0.109052559983     -2.825549538886     -1.658160258350
   46  H  4  X      -0.178591422496     -0.797844238151     -0.021347717766     -0.490847986976     -0.804126443896
   47  H  4  Y       0.326635851250      0.027631663624     -0.723470039669      0.992460748859      0.475860836271
   48  H  4  Z       0.436497469542     -0.023568947499      0.243838878141      1.236982673347      0.449871378336
   49  H  4  S      -2.293735617753     -0.189132636084      0.110653719952     -1.279473628508     -1.218428087232
   50  H  4  X      -0.362351405191     -1.940732570203      0.045619601947     -0.614858724391     -2.068060232281
   51  H  4  Y       0.634425213082      0.130443076894     -1.892826216651      1.221285194840      1.091684620028
   52  H  4  Z       1.080237611739      0.125406776357      0.133378361141      0.963807194795      1.043829177224

                     36         37         38         39         40

   36  H  3  S      -4.026840869197
   37  H  3  X       1.124474390498     -4.096265697396
   38  H  3  Y       0.093909554863     -0.105667618604     -3.093999485939
   39  H  3  Z       0.087466708347     -0.074493606716     -0.010180146665     -3.095832921065
   40  H  3  S      -2.524549734920      0.501327638862      0.041110277056      0.039130465648     -2.494819903484
   41  H  3  X       1.320507798991     -2.422563972187     -0.060321548956     -0.045748187589      0.875416124604
   42  H  3  Y       0.073602376990     -0.060321548956     -1.813682994660     -0.006372708611      0.037811850416
   43  H  3  Z       0.109631079482     -0.045748187589     -0.006372708611     -1.817002885247      0.074889208739
   44  H  4  S      -1.660574697242      0.963729574956     -0.273740091152     -0.267882597682     -1.220786196968
   45  H  4  S      -2.737639953390      1.312369677228     -0.224055704853     -0.220647906891     -2.174780285071
   46  H  4  X      -0.914035929689      1.083984449279     -0.437559976596     -0.425170732240     -0.306182206240
   47  H  4  Y       0.720617449516     -0.780685167096     -0.056165459369      0.209961858757      0.349201113709
   48  H  4  Z       0.685246530048     -0.736263783017      0.202591609069     -0.068069000174      0.334654779059
   49  H  4  S      -2.172633983308      0.570750408394     -0.023217878398     -0.023301129137     -2.284097692763
   50  H  4  X      -2.081269909378      0.996853634414     -0.372266582074     -0.360018077032     -0.816538570225
   51  H  4  Y       1.371636747374     -1.004727638314     -0.592231077419      0.159501819995      0.718742561513
   52  H  4  Z       1.341383232920     -0.952301288185      0.153914542649     -0.601106645667      0.724584092471

                     41         42         43         44         45

   41  H  3  X      -3.909755331760
   42  H  3  Y      -0.053472767332     -2.953673695966
   43  H  3  Z      -0.077803098419     -0.011824536862     -2.982800577162
   44  H  4  S       2.331894208556     -0.773316483025     -0.740708099176     -4.752269288330
   45  H  4  S       2.694129841613     -0.652999247967     -0.597126631988     -3.344291813793     -4.034666886030
   46  H  4  X       0.710373616279     -0.486723073592     -0.471217420529     -0.494319702647     -0.433491032418
   47  H  4  Y      -1.120609538630     -0.444701603030      0.302343178024      0.868245481409      0.756228952980
   48  H  4  Z      -1.067604586992      0.297917271728     -0.464841820596      0.828518063827      0.725502684354
   49  H  4  S       1.291085308569     -0.175333045263     -0.133133823084     -1.497986832849     -2.528457561654
   50  H  4  X       0.366670953286     -0.578533944371     -0.544580105464     -0.275869500293     -0.525427698915
   51  H  4  Y      -1.500267124007     -1.505726933293      0.274825809017      0.474884280348      0.857861939229
   52  H  4  Z      -1.474281479090      0.294885328328     -1.560775880408      0.460330264297      0.865658613678

                     46         47         48         49         50

   46  H  4  X      -3.241100300821
   47  H  4  Y       0.263432561023     -3.573073114494
   48  H  4  Z       0.236513439287     -0.442268756895     -3.505670725808
   49  H  4  S      -0.193604005497      0.336526453024      0.323765114105     -2.496865721768
   50  H  4  X      -1.904119677126      0.160067463602      0.144248630272     -0.353131544268     -3.125408529802
   51  H  4  Y       0.160067463602     -2.098975899806     -0.267283554730      0.559558280970      0.252121047046
   52  H  4  Z       0.144248630272     -0.267283554730     -2.065094107852      0.577361604867      0.232662845329

                     51         52

   51  H  4  Y      -3.359910854755
   52  H  4  Z      -0.405006283080     -3.377675592716
 KINETIC ENERGY INTEGRALS

                      1          2          3          4          5

    1  N  1  S      22.120816707737
    2  N  1  S     -11.936565572279      7.647345356693
    3  N  1  S       0.123503790482      0.351242617372      0.337200000000
    4  N  1  X      -0.000000000000      0.000000000000      0.000000000000      3.198405810019
    5  N  1  Y      -0.000000000000      0.000000000000      0.000000000000     -0.000000000000      3.198405810019
    6  N  1  Z      -0.000000000000      0.000000000000      0.000000000000     -0.000000000000     -0.000000000000
    7  N  1  X      -0.000000000000      0.000000000000     -0.000000000000      0.457571805372      0.000000000000
[...]
   46  H  4  X      -0.000050031554      0.000095810642      0.000027116802     -0.000004842116      0.000030904921
   47  H  4  Y       0.000122135884      0.000005234373      0.000125827817      0.000005433879      0.000018471994
   48  H  4  Z      -0.000090897822     -0.000010431881      0.000052370789      0.000045104360      0.000310651603
   49  H  4  S      -0.000777405795     -0.000023185239      0.000133122982     -0.000021652941     -0.000000107168
   50  H  4  X      -0.000133259226      0.000216725115      0.000046887929     -0.000007470177     -0.000021552755
   51  H  4  Y       0.000475080797      0.000028104187      0.000892319058      0.000025273209      0.000037643828
   52  H  4  Z      -0.000204325071     -0.000013592309      0.000077493196      0.000098423245      0.000058675188

                     21         22         23         24         25

   21  N  1 YY       0.000961193416
   22  N  1 ZZ       0.000000000000      0.000325370176
   23  N  1 XY       0.000000000000      0.000000000000      0.000757718362
   24  N  1 XZ       0.000000000000      0.000000000000      0.000000000000      0.000552290744
   25  N  1 YZ       0.000000000000      0.000000000000      0.000000000000      0.000000000000      0.000000000000
   26  H  2  S      -0.000036647118     -0.000185959972     -0.002227407048     -0.002012916028      0.000000000000
   27  H  2  S      -0.000012026795     -0.000010440559     -0.000376583461     -0.000387281679      0.000000000000
   28  H  2  X       0.000103888502      0.000027201432      0.000257260377     -0.000013547847      0.000000000000
   29  H  2  Y       0.000066248616     -0.000040405702     -0.000032206001      0.000260404501      0.000000000000
   30  H  2  Z      -0.000001506577     -0.000025610588      0.000002600102      0.000001402324      0.000000000000
   31  H  2  S      -0.000000012469     -0.000000150399     -0.000001821916     -0.000001635555      0.000000000000
   32  H  2  X      -0.000002766605      0.000022866703      0.000123515277     -0.000003612507      0.000000000000
   33  H  2  Y       0.000075581432     -0.000036394081     -0.000001290021      0.000104078151      0.000000000000
   34  H  2  Z      -0.000002017679     -0.000000521263      0.000051033992      0.000054579755      0.000000000000
   35  H  3  S      -0.006473377970      0.000146852411     -0.000227993618      0.000000271910      0.000000000000
   36  H  3  S      -0.001062343407     -0.000002483296     -0.000032778836      0.000000645001      0.000000000000
   37  H  3  X       0.000283293829      0.000004860824     -0.000002926058     -0.000000573587      0.000000000000
   38  H  3  Y       0.000011671196      0.000241872626     -0.000000666585     -0.000012521847      0.000000000000
   39  H  3  Z      -0.000004896690     -0.000000107388      0.000342143836     -0.000029862494      0.000000000000
   40  H  3  S      -0.000005216943      0.000000077194     -0.000000143333     -0.000000001730      0.000000000000
   41  H  3  X       0.000315440441      0.000002625953      0.000002664674      0.000000230129      0.000000000000
   42  H  3  Y       0.000040609889      0.000153815954      0.000000320142     -0.000004980543      0.000000000000
   43  H  3  Z      -0.000002031712      0.000000161156     -0.000022779410      0.000005547136      0.000000000000
   44  H  4  S      -0.000494512497     -0.001604564059     -0.002147496419     -0.004296638037      0.000000000000
   45  H  4  S      -0.000122474754     -0.000225435150     -0.000419584207     -0.000749886251      0.000000000000
   46  H  4  X       0.000152364894      0.000135943495      0.000074267566     -0.000053104971      0.000000000000
   47  H  4  Y       0.000148607312      0.000018337628     -0.000089087423      0.000087223967      0.000000000000
   48  H  4  Z      -0.000005179516     -0.000068449707      0.000018782997      0.000092283195      0.000000000000
   49  H  4  S      -0.000000286550     -0.000001268876     -0.000001799921     -0.000003562425      0.000000000000
   50  H  4  X      -0.000010122633      0.000099351261      0.000107614672     -0.000021104813      0.000000000000
   51  H  4  Y       0.000173748649     -0.000012186342     -0.000027438024      0.000060214740      0.000000000000
   52  H  4  Z      -0.000005086663     -0.000018792490      0.000085669819      0.000168177206      0.000000000000

                     26         27         28         29         30

   26  H  2  S       0.417372646309
   27  H  2  S       0.118241846614      0.083082333861
   28  H  2  X       0.000000000000      0.000000000000      0.001008602638
   29  H  2  Y       0.000000000000      0.000000000000      0.000000000000      0.001288253771
   30  H  2  Z       0.000000000000      0.000000000000      0.000000000000      0.000000000000      0.003890434364
   31  H  2  S       0.003581939974      0.004036672692      0.000000000000      0.000000000000      0.000000000000
   32  H  2  X       0.000000000000      0.000000000000      0.000112799262      0.000000000000      0.000000000000
   33  H  2  Y       0.000000000000      0.000000000000      0.000000000000      0.000255775334      0.000000000000
   34  H  2  Z       0.000000000000      0.000000000000      0.000000000000      0.000000000000      0.000909627602
   35  H  3  S      -0.004596391312     -0.016213391391      0.001628256972     -0.000037909937      0.000111770505
   36  H  3  S      -0.016993066620     -0.018331126519      0.000754694970     -0.000059717557     -0.000535695948
   37  H  3  X       0.000483667637     -0.000515247870      0.000189255457      0.000003950820      0.000177546400
   38  H  3  Y       0.000114709467      0.000064127915      0.000002348202      0.000020186702      0.000015769415
   39  H  3  Z       0.001108379545      0.000651053911      0.000070093076      0.000012492675      0.000047994000
   40  H  3  S      -0.000909682040     -0.001085239578      0.000010914726     -0.000001298892     -0.000008093926
   41  H  3  X      -0.003163517846     -0.002332419270      0.000037211345     -0.000002937731     -0.000102360171
   42  H  3  Y       0.000267242436      0.000092599644      0.000019811725      0.000060472755      0.000014893886
   43  H  3  Z      -0.000683407269     -0.000459531644      0.000017073376     -0.000005976643      0.000005112263
   44  H  4  S      -0.004253195880     -0.017476412744      0.000053258437      0.000346077274      0.001716223277
   45  H  4  S      -0.018179094836     -0.020741673152      0.000058521316      0.000259367722     -0.000078340234
   46  H  4  X      -0.000030812494     -0.000053361624      0.000023133953      0.000002804417      0.000010812536
   47  H  4  Y      -0.000147620810     -0.000228668624      0.000002145509     -0.000005197553      0.000049082531
   48  H  4  Z       0.002273031879      0.000553551196     -0.000006382356      0.000009144836      0.000534689506
   49  H  4  S      -0.000800040924     -0.001100604463      0.000000632754      0.000004102452      0.000000120600
   50  H  4  X      -0.000048781617     -0.000064437097     -0.000027055644      0.000002749305      0.000007249677
   51  H  4  Y      -0.000902860402     -0.000537388671      0.000003799749     -0.000011525037     -0.000033242559
   52  H  4  Z      -0.002055643055     -0.001885251198      0.000008104200      0.000051279855      0.000039706069

                     31         32         33         34         35

   31  H  2  S       0.000405021711
   32  H  2  X       0.000000000000      0.000334205452
   33  H  2  Y       0.000000000000      0.000000000000      0.000440389295
   34  H  2  Z       0.000000000000      0.000000000000      0.000000000000      0.001571021157
   35  H  3  S      -0.000802242150     -0.001057674352     -0.000400832835     -0.001694971944      0.407554117762
   36  H  3  S      -0.001072611662     -0.000905394281     -0.000203781957     -0.001523874365      0.113371413721
   37  H  3  X      -0.000006937625     -0.000004353335     -0.000022193398     -0.000025551441      0.000000000000
   38  H  3  Y       0.000001499116      0.000012855271      0.000076124613      0.000006260031      0.000000000000
   39  H  3  Z       0.000009995352      0.000057977548     -0.000000148633     -0.000033165007      0.000000000000
   40  H  3  S      -0.000088915286     -0.000017936812     -0.000006192061     -0.000036005889      0.003138520632
   41  H  3  X      -0.000056450024      0.000040484231     -0.000012809687     -0.000193092200      0.000000000000
   42  H  3  Y       0.000004547810      0.000013565151      0.000230160123      0.000004671649      0.000000000000
   43  H  3  Z      -0.000009088584     -0.000018137423     -0.000007465531      0.000055290627      0.000000000000
   44  H  4  S      -0.000792667363      0.000003985451      0.000596585025     -0.003088382642     -0.004298925183
   45  H  4  S      -0.001153512002      0.000032736760      0.000296233179     -0.002820786657     -0.016659571007
   46  H  4  X      -0.000000599254     -0.000012995857      0.000003043010     -0.000011901091      0.001897880109
   47  H  4  Y      -0.000003660172      0.000001146142      0.000003777331     -0.000037638261     -0.000067000725
   48  H  4  Z       0.000010229262     -0.000011258619      0.000034409217      0.000095401870     -0.000008013890
   49  H  4  S      -0.000082355159      0.000000273604      0.000009617173     -0.000059418919     -0.000717445574
   50  H  4  X      -0.000000913255      0.000018399920      0.000002841388     -0.000010297492     -0.000895494379
   51  H  4  Y      -0.000015065425      0.000002721917      0.000135279393     -0.000068177424     -0.001369458693
   52  H  4  Z      -0.000036020148      0.000001670806      0.000044113397     -0.000033709170     -0.000570931728

                     36         37         38         39         40

   36  H  3  S       0.079291919128
   37  H  3  X       0.000000000000      0.004531824101
   38  H  3  Y       0.000000000000      0.000000000000      0.000927842099
   39  H  3  Z       0.000000000000      0.000000000000      0.000000000000      0.000671710676
   40  H  3  S       0.003606996387      0.000000000000      0.000000000000      0.000000000000      0.000336846957
   41  H  3  X       0.000000000000      0.000955321324      0.000000000000      0.000000000000      0.000000000000
   42  H  3  Y       0.000000000000      0.000000000000      0.000227276934      0.000000000000      0.000000000000
   43  H  3  Z       0.000000000000      0.000000000000      0.000000000000     -0.000024130782      0.000000000000
   44  H  4  S      -0.016769706022      0.000839761586      0.000551789938      0.000456012965     -0.000809460719
   45  H  4  S      -0.018422709707     -0.000449130624      0.000321405758      0.000328418324     -0.000984082331
   46  H  4  X       0.000741070887      0.000295574925      0.000033503008      0.000016851188      0.000011034012
   47  H  4  Y      -0.000273795149      0.000071047485     -0.000000621272      0.000025722168     -0.000004614328
   48  H  4  Z      -0.000273171846      0.000087052186      0.000032626970      0.000000289855     -0.000003576786
   49  H  4  S      -0.000941093704     -0.000005066359      0.000005628229      0.000004132586     -0.000066963739
   50  H  4  X      -0.000913501820      0.000005396599      0.000055039410      0.000030547981     -0.000015560954
   51  H  4  Y      -0.000806438052     -0.000061868948      0.000022872862      0.000025062269     -0.000020923725
   52  H  4  Z      -0.000552771154      0.000005746076      0.000026413001     -0.000063930689     -0.000010422416

                     41         42         43         44         45

   41  H  3  X       0.001576450081
   42  H  3  Y       0.000000000000      0.000500514789
   43  H  3  Z       0.000000000000      0.000000000000      0.000061252885
   44  H  4  S      -0.003203704930      0.000629603776     -0.000180391706      0.409275497470
   45  H  4  S      -0.002442716107      0.000195077075     -0.000085344196      0.114890834277      0.081776086772
   46  H  4  X       0.000062043420      0.000060920509     -0.000023784473      0.000000000000      0.000000000000
   47  H  4  Y      -0.000033356287      0.000020521357     -0.000000519250      0.000000000000      0.000000000000
   48  H  4  Z      -0.000065845880      0.000022846575      0.000001791606      0.000000000000      0.000000000000
   49  H  4  S      -0.000052870089      0.000010096643     -0.000002999221      0.003243193812      0.003705648345
   50  H  4  X       0.000012689295      0.000043317360     -0.000009921240      0.000000000000      0.000000000000
   51  H  4  Y      -0.000077323368      0.000181615993      0.000004878852      0.000000000000      0.000000000000
   52  H  4  Z      -0.000085135878      0.000016400283      0.000029428778      0.000000000000      0.000000000000

                     46         47         48         49         50

   46  H  4  X       0.001326747782
   47  H  4  Y       0.000000000000      0.002440310780
   48  H  4  Z       0.000000000000      0.000000000000      0.002395882656
   49  H  4  S       0.000000000000      0.000000000000      0.000000000000      0.000349087760
   50  H  4  X       0.000226199405      0.000000000000      0.000000000000      0.000000000000      0.000478244967
   51  H  4  Y       0.000000000000      0.000455070666      0.000000000000      0.000000000000      0.000000000000
   52  H  4  Z       0.000000000000      0.000000000000      0.000496938079      0.000000000000      0.000000000000

                     51         52

   51  H  4  Y       0.000715471682
   52  H  4  Z       0.000000000000      0.000958365717

               ----- POPULATIONS IN EACH AO -----
                             MULLIKEN      LOWDIN
              1  N  1  S      2.00426     1.84775
              2  N  1  S      0.76015     0.51753
              3  N  1  S      0.56828     0.27663
              4  N  1  X      0.74246     0.65307
              5  N  1  Y      0.88124     0.79791
              6  N  1  Z      0.73686     0.64869
              7  N  1  X      0.33924     0.44327
              8  N  1  Y      0.58699     0.51232
              9  N  1  Z      0.31688     0.43693
             10  N  1 XX      0.00557     0.14231
             11  N  1 YY      0.00756     0.11786
             12  N  1 ZZ      0.00357     0.13905
             13  N  1 XY      0.00117     0.00436
             14  N  1 XZ      0.01013     0.00362
             15  N  1 YZ      0.00000     0.01472
             16  N  1  S      0.03646     0.05612
             17  N  1  X      0.00685     0.04160
             18  N  1  Y      0.05707     0.06188
             19  N  1  Z      0.00152     0.03893
             20  N  1 XX     -0.00718     0.04797
             21  N  1 YY     -0.00616     0.02774
             22  N  1 ZZ     -0.00104     0.04093
             23  N  1 XY     -0.00393     0.00573
             24  N  1 XZ     -0.00663     0.00972
             25  N  1 YZ      0.00000     0.02129
             26  H  2  S      0.76772     0.51382
             27  H  2  S      0.16389     0.12448
             28  H  2  X      0.01263     0.02853
             29  H  2  Y      0.01610     0.04173
             30  H  2  Z      0.03061     0.04886
             31  H  2  S      0.00224     0.01376
             32  H  2  X     -0.00140     0.07141
             33  H  2  Y      0.01494     0.10293
             34  H  2  Z     -0.00711     0.09540
             35  H  3  S      0.75544     0.51301
             36  H  3  S      0.15826     0.12697
             37  H  3  X      0.03466     0.05369
             38  H  3  Y      0.01360     0.03711
             39  H  3  Z      0.00977     0.02330
             40  H  3  S      0.00150     0.01384
             41  H  3  X     -0.00781     0.10059
             42  H  3  Y      0.01474     0.09617
             43  H  3  Z     -0.00223     0.06631
             44  H  4  S      0.75742     0.50603
             45  H  4  S      0.15784     0.12518
             46  H  4  X      0.01451     0.02902
             47  H  4  Y      0.02275     0.04726
             48  H  4  Z      0.02124     0.03615
             49  H  4  S      0.00182     0.01384
             50  H  4  X     -0.00085     0.07280
             51  H  4  Y      0.01147     0.11069
             52  H  4  Z     -0.00505     0.07920

          ----- MULLIKEN ATOMIC OVERLAP POPULATIONS -----
          (OFF-DIAGONAL ELEMENTS NEED TO BE MULTIPLIED BY 2)

             1           2           3           4

    1    5.9251274
    2    0.3732948   0.7636702
    3    0.3727702  -0.0677418   0.7380033
    4    0.3701235  -0.0696049  -0.0651181   0.7457515

          TOTAL MULLIKEN AND LOWDIN ATOMIC POPULATIONS
       ATOM         MULL.POP.                    LOW.POP.

          TOTAL MULLIKEN AND LOWDIN ATOMIC POPULATIONS
       ATOM         MULL.POP.    CHARGE          LOW.POP.     CHARGE
    1 N             7.041316                     6.907931
    1 N             7.041316   -0.041316         6.907931    0.092069
    2 H             0.999618                     1.040924
    2 H             0.999618    0.000382         1.040924   -0.040924
    3 H             0.977914                     1.030989
    3 H             0.977914    0.022086         1.030989   -0.030989
    4 H             0.981152                     1.020156
    4 H             0.981152    0.018848         1.020156   -0.020156

          MULLIKEN SPHERICAL HARMONIC POPULATIONS
       ATOM           S       P       D      F      G      H      I    TOTAL
    1 N             3.37    3.67    0.00   0.00   0.00   0.00   0.00    7.04
    2 H             0.93    0.07    0.00   0.00   0.00   0.00   0.00    1.00
    3 H             0.92    0.06    0.00   0.00   0.00   0.00   0.00    0.98
    4 H             0.92    0.06    0.00   0.00   0.00   0.00   0.00    0.98

          -------------------------------
          BOND ORDER AND VALENCE ANALYSIS     BOND ORDER THRESHOLD=0.050
          -------------------------------

                   BOND                       BOND                       BOND
  ATOM PAIR DIST  ORDER      ATOM PAIR DIST  ORDER      ATOM PAIR DIST  ORDER
    1   2  0.988  1.034        1   3  1.004  1.026        1   4  1.003  1.023

                       TOTAL       BONDED        FREE
      ATOM            VALENCE     VALENCE     VALENCE
    1 N                 3.083       3.083       0.000
    2 H                 1.008       1.008       0.000
    3 H                 0.998       0.998       0.000
    4 H                 1.000       1.000      -0.000

          ---------------------
          ELECTROSTATIC MOMENTS
          ---------------------

 POINT   1           X           Y           Z (BOHR)    CHARGE
                 3.586297    2.453597    0.657808        0.00 (A.U.)
         DX          DY          DZ         /D/  (DEBYE)
     0.546222    1.666582   -0.301063    1.779465
 ...... END OF PROPERTY EVALUATION ......
 STEP CPU TIME =     0.01 TOTAL CPU TIME =        1.0 (    0.0 MIN)
 TOTAL WALL CLOCK TIME=        1.2 SECONDS, CPU UTILIZATION IS  85.22%
                580000  WORDS OF DYNAMIC MEMORY USED
 EXECUTION OF GAMESS TERMINATED NORMALLY Thu Oct 16 15:24:55 2014
 DDI: 263624 bytes (0.3 MB / 0 MWords) used by master data server.

 ----------------------------------------
 CPU timing information for all processes
 ========================================
 0: 0.979 + 0.16 = 0.996
 ----------------------------------------
 ddikick.x: exited gracefully.
----- accounting info -----
Files used on the master node archvm were:
-rw-r--r-- 1 ben users     387 Oct 16 15:24 /scratch/amo.F05
-rw-r--r-- 1 ben users 1537840 Oct 16 15:24 /scratch/amo.F10
-rw-r--r-- 1 ben users   43341 Oct 16 15:24 /scratch/amo.dat
Thu Oct 16 15:24:58 EDT 2014
0.073u 0.019s 0:04.61 1.7%	0+0k 8+16io 0pf+0w
