Warning: no access to tty (Bad file descriptor).
Thus no job control in this shell.
This is DQS job amo_sna.91679
----- GAMESS execution script 'rungms' -----
This job is running on host sb.msg.chem.iastate.edu
under operating system Linux at Tue Nov 26 18:27:08 CST 2013
Available scratch disk space (Kbyte units) at beginning of the job is
Filesystem           1K-blocks      Used Available Use% Mounted on
/dev/sda3            211868468     68976 211799492   1% /scr
GAMESS temporary binary files will be written to /scr/federico
GAMESS supplementary output files will be written to /u1/federico/scr
Copying input file amo_snap.inp to your run's scratch directory...
cp amo_snap.inp /scr/federico/amo_snap.F05
unset echo
/se/mike/gamess/ddikick.x /se/mike/gamess/gamess.131.x amo_snap -ddi 1 2 sb.msg.chem.iastate.edu:cpus=2 -scr /scr/federico

 Distributed Data Interface kickoff program.
 Initiating 2 compute processes on 1 nodes to run the following command:
 /se/mike/gamess/gamess.131.x amo_snap 

          ******************************************************
          *         GAMESS VERSION =  1 MAY 2013 (R1)          *
          *             FROM IOWA STATE UNIVERSITY             *
          * M.W.SCHMIDT, K.K.BALDRIDGE, J.A.BOATZ, S.T.ELBERT, *
          *   M.S.GORDON, J.H.JENSEN, S.KOSEKI, N.MATSUNAGA,   *
          *          K.A.NGUYEN, S.J.SU, T.L.WINDUS,           *
          *       TOGETHER WITH M.DUPUIS, J.A.MONTGOMERY       *
          *         J.COMPUT.CHEM.  14, 1347-1363(1993)        *
          **************** 64 BIT INTEL VERSION ****************

  SINCE 1993, STUDENTS AND POSTDOCS WORKING AT IOWA STATE UNIVERSITY
  AND ALSO IN THEIR VARIOUS JOBS AFTER LEAVING ISU HAVE MADE IMPORTANT
  CONTRIBUTIONS TO THE CODE:
     IVANA ADAMOVIC, CHRISTINE AIKENS, YURI ALEXEEV, POOJA ARORA,
     ANDREY ASADCHEV, ROB BELL, PRADIPTA BANDYOPADHYAY, JONATHAN BENTZ,
     BRETT BODE, GALINA CHABAN, WEI CHEN, CHEOL HO CHOI, PAUL DAY,
     ALBERT DEFUSCO, TIM DUDLEY, DMITRI FEDOROV, GRAHAM FLETCHER,
     MARK FREITAG, KURT GLAESEMANN, DAN KEMP, GRANT MERRILL,
     NORIYUKI MINEZAWA, JONATHAN MULLIN, TAKESHI NAGATA,
     SEAN NEDD, HEATHER NETZLOFF, BOSILJKA NJEGIC, RYAN OLSON, MIKE PAK,
     JIM SHOEMAKER, LYUDMILA SLIPCHENKO, SAROM SOK, JIE SONG,
     TETSUYA TAKETSUGU, SIMON WEBB, SOOHAENG YOO, FEDERICO ZAHARIEV

  ADDITIONAL CODE HAS BEEN PROVIDED BY COLLABORATORS IN OTHER GROUPS:
     IOWA STATE UNIVERSITY:
          JOE IVANIC, LAIMUTIS BYTAUTAS, KLAUS RUEDENBERG
     UNIVERSITY OF TOKYO: KIMIHIKO HIRAO, TAKAHITO NAKAJIMA,
          TAKAO TSUNEDA, MUNEAKI KAMIYA, SUSUMU YANAGISAWA,
          KIYOSHI YAGI, MAHITO CHIBA, SEIKEN TOKURA, NAOAKI KAWAKAMI
     UNIVERSITY OF AARHUS: FRANK JENSEN
     UNIVERSITY OF IOWA: VISVALDAS KAIRYS, HUI LI
     NATIONAL INST. OF STANDARDS AND TECHNOLOGY: WALT STEVENS, DAVID GARMER
     UNIVERSITY OF PISA: BENEDETTA MENNUCCI, JACOPO TOMASI
     UNIVERSITY OF MEMPHIS: HENRY KURTZ, PRAKASHAN KORAMBATH
     UNIVERSITY OF ALBERTA: TOBY ZENG, MARIUSZ KLOBUKOWSKI
     UNIVERSITY OF NEW ENGLAND: MARK SPACKMAN
     MIE UNIVERSITY: HIROAKI UMEDA
     MICHIGAN STATE UNIVERSITY:
          KAROL KOWALSKI, MARTA WLOCH, JEFFREY GOUR, JESSE LUTZ,
          WEI LI, PIOTR PIECUCH
     UNIVERSITY OF SILESIA: MONIKA MUSIAL, STANISLAW KUCHARSKI
     FACULTES UNIVERSITAIRES NOTRE-DAME DE LA PAIX:
          OLIVIER QUINET, BENOIT CHAMPAGNE
     UNIVERSITY OF CALIFORNIA - SANTA BARBARA: BERNARD KIRTMAN
     INSTITUTE FOR MOLECULAR SCIENCE:
          KAZUYA ISHIMURA, MICHIO KATOUDA, AND SHIGERU NAGASE
     UNIVERSITY OF NOTRE DAME: DAN CHIPMAN
     KYUSHU UNIVERSITY:
          HARUYUKI NAKANO,
          FENG LONG GU, JACEK KORCHOWIEC, MARCIN MAKOWSKI, AND YURIKO AOKI,
          HIROTOSHI MORI AND EISAKU MIYOSHI
     PENNSYLVANIA STATE UNIVERSITY:
          TZVETELIN IORDANOV, CHET SWALINA, JONATHAN SKONE,
          SHARON HAMMES-SCHIFFER
     WASEDA UNIVERSITY:
          MASATO KOBAYASHI, TOMOKO AKAMA, TSUGUKI TOUMA,
          TAKESHI YOSHIKAWA, YASUHIRO IKABATA, HIROMI NAKAI
     NANJING UNIVERSITY: SHUHUA LI
     UNIVERSITY OF NEBRASKA:
          PEIFENG SU, DEJUN SI, NANDUN THELLAMUREGE, YALI WANG, HUI LI
     UNIVERSITY OF ZURICH:
          ROBERTO PEVERATI, KIM BALDRIDGE
     N. COPERNICUS UNIVERSITY AND JACKSON STATE UNIVERSITY:
          MARIA BARYSZ


 PARALLEL VERSION RUNNING ON     2 PROCESSORS IN     1 NODES.

 EXECUTION OF GAMESS BEGUN Tue Nov 26 18:27:08 2013

            ECHO OF THE FIRST FEW INPUT CARDS -
 INPUT CARD> $CONTRL ispher=1 scftyp=rhf $end                                               
 INPUT CARD> $basis gbasis=accd $end                                                        
 INPUT CARD> $scf dirscf=.t. $end                                                           
 INPUT CARD> $system memory=10000000 $end                                                   
 INPUT CARD> $DATA                                                                          
 INPUT CARD>                                                                                
 INPUT CARD> C1                                                                             
 INPUT CARD> N           7.0   1.8753260893   1.2278971082   0.3595137322                   
 INPUT CARD> H           1.0   1.6237440122   1.5930738032  -0.5233893479                   
 INPUT CARD> H           1.0   2.8687723240   1.3533497046   0.4293906575                   
 INPUT CARD> H           1.0   1.5129248729   1.9281634681   0.9796664950                   
 INPUT CARD> $END                                                                           
 INPUT CARD> $EFRAG                                                                         
 INPUT CARD> coord=cart                                                                     
 INPUT CARD> FRAGNAME=H2ORHF  !   1                                                         
 INPUT CARD> ZO1                3.517294437373   -2.887816914827   -5.886557841379          
 INPUT CARD> ZH2                4.367786677780   -3.054547867261   -6.260378911632          
 INPUT CARD> ZH3                3.664563399044   -2.474278189587   -5.050988556573          
 INPUT CARD> FRAGNAME=H2ORHF  !   2                                                         
 INPUT CARD> ZO1                1.877062296430   -0.202351099550   -7.558092322248          
 INPUT CARD> ZH2                2.676142020815   -0.604157605919   -7.256593434069          
 INPUT CARD> ZH3                1.405485138706   -0.863680487976   -8.038859291137          
 INPUT CARD> FRAGNAME=H2ORHF  !   3                                                         
 INPUT CARD> ZO1                2.619165753122    1.965790289407   -5.741904128947          
 INPUT CARD> ZH2                1.981156750465    1.651297679741   -6.362321218559          
 INPUT CARD> ZH3                2.303200236949    1.729457044419   -4.884471423721          
 INPUT CARD> FRAGNAME=H2ORHF  !   4                                                         
 INPUT CARD> ZO1                1.049257929564   -2.320339101797   -1.490326206959          
 INPUT CARD> ZH2                0.210464267210   -2.047610349225   -1.826365897430          
 INPUT CARD> ZH3                1.060038502346   -2.096360659539   -0.573486040566          
 INPUT CARD> FRAGNAME=H2ORHF  !   5                                                         
 INPUT CARD> ZO1                3.606151058277   -1.441701420204   -3.507624530972          
 INPUT CARD> ZH2                4.087399982368   -0.698276572075   -3.181131924148          
 INPUT CARD> ZH3                3.184768292956   -1.840345095905   -2.763045294773          
 INPUT CARD> FRAGNAME=H2ORHF  !   6                                                         
 INPUT CARD> ZO1                0.744909362801    3.352365519881    5.864021847575          
 INPUT CARD> ZH2                1.662363511476    3.268653919336    5.658720344704          
 INPUT CARD> ZH3                0.313775401590    2.599952415991    5.491360496409          
 INPUT CARD> FRAGNAME=H2ORHF  !   7                                                         
 INPUT CARD> ZO1                1.323846271910   -4.606643028900   -6.600905589997          
 INPUT CARD> ZH2                1.417950501449   -5.038456918443   -5.766903424018          
 INPUT CARD> ZH3                2.008150884592   -3.958379749109   -6.649489241697          
 INPUT CARD> FRAGNAME=H2ORHF  !   8                                                         
 INPUT CARD> ZO1                1.380528524502   -3.758769933521    1.532046764354          
 INPUT CARD> ZH2                1.073071339773   -4.041420159039    2.378484820947          
 INPUT CARD> ZH3                0.730180550370   -4.028264931344    0.903319150227          
 INPUT CARD> FRAGNAME=H2ORHF  !   9                                                         
 INPUT CARD> ZO1               -3.761549596022    0.192570149988   -5.941324421296          
 INPUT CARD> ZH2               -4.496867961943    0.361611830071   -6.508431347005          
 INPUT CARD> ZH3               -4.050798766360    0.372631697693   -5.061102170641          
   10000000 WORDS OF MEMORY AVAILABLE

     BASIS OPTIONS
     -------------
     GBASIS=ACCD         IGAUSS=       0      POLAR=NONE    
     NDFUNC=       0     NFFUNC=       0     DIFFSP=       F
     NPFUNC=       0      DIFFS=       F     BASNAM=        


     RUN TITLE
     ---------
                                                                                 

 THE POINT GROUP OF THE MOLECULE IS C1      
 THE ORDER OF THE PRINCIPAL AXIS IS     0

 ATOM      ATOMIC                      COORDINATES (BOHR)
           CHARGE         X                   Y                   Z
 N           7.0     3.5438524464        2.3203890756        0.6793824427
 H           1.0     3.0684312573        3.0104729663       -0.9890624524
 H           1.0     5.4211936135        2.5574601073        0.8114306844
 H           1.0     2.8590134498        3.6437006142        1.8513012349

          INTERNUCLEAR DISTANCES (ANGS.)
          ------------------------------

                1 N          2 H          3 H          4 H     

   1 N       0.0000000    0.9880108 *  1.0037712 *  1.0031436 *
   2 H       0.9880108 *  0.0000000    1.5859864 *  1.5439374 *
   3 H       1.0037712 *  1.5859864 *  0.0000000    1.5721122 *
   4 H       1.0031436 *  1.5439374 *  1.5721122 *  0.0000000  

  * ... LESS THAN  3.000


     ATOMIC BASIS SET
     ----------------
 THE CONTRACTED PRIMITIVE FUNCTIONS HAVE BEEN UNNORMALIZED
 THE CONTRACTED BASIS FUNCTIONS ARE NOW NORMALIZED TO UNITY

  SHELL TYPE  PRIMITIVE        EXPONENT          CONTRACTION COEFFICIENT(S)

 N         

      1   S       1          9046.0000000    0.000699617413
      1   S       2          1357.0000000    0.005386054630
      1   S       3           309.3000000    0.027391021189
      1   S       4            87.7300000    0.103150591982
      1   S       5            28.5600000    0.278570663317
      1   S       6            10.2100000    0.448294849454
      1   S       7             3.8380000    0.278085928395
      1   S       8             0.7466000    0.015431561233

      2   S       9          9046.0000000   -0.000304990096
      2   S      10          1357.0000000   -0.002408026379
      2   S      11           309.3000000   -0.011944448725
      2   S      12            87.7300000   -0.048925992909
      2   S      13            28.5600000   -0.134472724725
      2   S      14            10.2100000   -0.315112577700
      2   S      15             3.8380000   -0.242857832550
      2   S      16             0.7466000    1.094382206854

      3   S      17             0.2248000    1.000000000000

      4   P      18            13.5500000    0.058905676772
      4   P      19             2.9170000    0.320461106714
      4   P      20             0.7973000    0.753042061792

      5   P      21             0.2185000    1.000000000000

      6   D      22             0.8170000    1.000000000000

      7   S      23             0.0612400    1.000000000000

      8   P      24             0.0561100    1.000000000000

      9   D      25             0.2300000    1.000000000000

 H         

     10   S      26            13.0100000    0.033498726390
     10   S      27             1.9620000    0.234800801174
     10   S      28             0.4446000    0.813682957883

     11   S      29             0.1220000    1.000000000000

     12   P      30             0.7270000    1.000000000000

     13   S      31             0.0297400    1.000000000000

     14   P      32             0.1410000    1.000000000000

 H         

     15   S      33            13.0100000    0.033498726390
     15   S      34             1.9620000    0.234800801174
     15   S      35             0.4446000    0.813682957883

     16   S      36             0.1220000    1.000000000000

     17   P      37             0.7270000    1.000000000000

     18   S      38             0.0297400    1.000000000000

     19   P      39             0.1410000    1.000000000000

 H         

     20   S      40            13.0100000    0.033498726390
     20   S      41             1.9620000    0.234800801174
     20   S      42             0.4446000    0.813682957883

     21   S      43             0.1220000    1.000000000000

     22   P      44             0.7270000    1.000000000000

     23   S      45             0.0297400    1.000000000000

     24   P      46             0.1410000    1.000000000000

 TOTAL NUMBER OF BASIS SET SHELLS             =   24
 NUMBER OF CARTESIAN GAUSSIAN BASIS FUNCTIONS =   52
 NOTE: THIS RUN WILL RESTRICT THE MO VARIATION SPACE TO SPHERICAL HARMONICS.
 THE NUMBER OF ORBITALS KEPT IN THE VARIATIONAL SPACE WILL BE PRINTED LATER.
 NUMBER OF ELECTRONS                          =   10
 CHARGE OF MOLECULE                           =    0
 SPIN MULTIPLICITY                            =    1
 NUMBER OF OCCUPIED ORBITALS (ALPHA)          =    5
 NUMBER OF OCCUPIED ORBITALS (BETA )          =    5
 TOTAL NUMBER OF ATOMS                        =    4
 THE NUCLEAR REPULSION ENERGY IS       12.1451530544

     $CONTRL OPTIONS
     ---------------
 SCFTYP=RHF          RUNTYP=ENERGY       EXETYP=RUN     
 MPLEVL=       0     CITYP =NONE         CCTYP =NONE         VBTYP =NONE    
 DFTTYP=NONE         TDDFT =NONE    
 MULT  =       1     ICHARG=       0     NZVAR =       0     COORD =UNIQUE  
 PP    =NONE         RELWFN=NONE         LOCAL =NONE         NUMGRD=       F
 ISPHER=       1     NOSYM =       0     MAXIT =      30     UNITS =ANGS    
 PLTORB=       F     MOLPLT=       F     AIMPAC=       F     FRIEND=        
 NPRINT=       7     IREST =       0     GEOM  =INPUT   
 NORMF =       0     NORMP =       0     ITOL  =      20     ICUT  =       9
 INTTYP=BEST         GRDTYP=BEST         QMTTOL= 1.0E-06     RDMTYP=NONE    

     $SYSTEM OPTIONS
     ---------------
  REPLICATED MEMORY=    10000000 WORDS (ON EVERY NODE).
 DISTRIBUTED MEMDDI=           0 MILLION WORDS IN AGGREGATE,
 MEMDDI DISTRIBUTED OVER   2 PROCESSORS IS           0 WORDS/PROCESSOR.
 TOTAL MEMORY REQUESTED ON EACH PROCESSOR=    10000000 WORDS.
 TIMLIM=      525600.00 MINUTES, OR     365.0 DAYS.
 PARALL= T  BALTYP=  DLB     KDIAG=    0  COREFL= F
 MXSEQ2=     300 MXSEQ3=     150

 READING $EFRAG GROUP
 COORD=CART      POSITION=OPTIMIZE  POLMETHD=FRGSCF   NBUFFMO=0
 READING COORDINATES OF FRAGMENT   1 NAMED   H2ORHF
 READING COORDINATES OF FRAGMENT   2 NAMED   H2ORHF
 READING COORDINATES OF FRAGMENT   3 NAMED   H2ORHF
 READING COORDINATES OF FRAGMENT   4 NAMED   H2ORHF
 READING COORDINATES OF FRAGMENT   5 NAMED   H2ORHF
 READING COORDINATES OF FRAGMENT   6 NAMED   H2ORHF
 READING COORDINATES OF FRAGMENT   7 NAMED   H2ORHF
 READING COORDINATES OF FRAGMENT   8 NAMED   H2ORHF
 READING COORDINATES OF FRAGMENT   9 NAMED   H2ORHF
 READING COORDINATES OF FRAGMENT  10 NAMED   H2ORHF
 READING COORDINATES OF FRAGMENT  11 NAMED   H2ORHF
 READING COORDINATES OF FRAGMENT  12 NAMED   H2ORHF
 READING COORDINATES OF FRAGMENT  13 NAMED   H2ORHF
 READING COORDINATES OF FRAGMENT  14 NAMED   H2ORHF
 READING COORDINATES OF FRAGMENT  15 NAMED   H2ORHF
 READING COORDINATES OF FRAGMENT  16 NAMED   H2ORHF
 READING COORDINATES OF FRAGMENT  17 NAMED   H2ORHF
 READING COORDINATES OF FRAGMENT  18 NAMED   H2ORHF
 READING COORDINATES OF FRAGMENT  19 NAMED   H2ORHF
 READING COORDINATES OF FRAGMENT  20 NAMED   H2ORHF
 READING COORDINATES OF FRAGMENT  21 NAMED   H2ORHF
 READING COORDINATES OF FRAGMENT  22 NAMED   H2ORHF
 READING COORDINATES OF FRAGMENT  23 NAMED   H2ORHF
 READING COORDINATES OF FRAGMENT  24 NAMED   H2ORHF
 READING COORDINATES OF FRAGMENT  25 NAMED   H2ORHF
 READING COORDINATES OF FRAGMENT  26 NAMED   H2ORHF
 READING COORDINATES OF FRAGMENT  27 NAMED   H2ORHF
 READING COORDINATES OF FRAGMENT  28 NAMED   H2ORHF
 READING COORDINATES OF FRAGMENT  29 NAMED   H2ORHF
 READING COORDINATES OF FRAGMENT  30 NAMED   H2ORHF
 READING COORDINATES OF FRAGMENT  31 NAMED   H2ORHF
 READING COORDINATES OF FRAGMENT  32 NAMED   H2ORHF
 READING COORDINATES OF FRAGMENT  33 NAMED   H2ORHF
 READING COORDINATES OF FRAGMENT  34 NAMED   H2ORHF
 READING COORDINATES OF FRAGMENT  35 NAMED   H2ORHF
 READING COORDINATES OF FRAGMENT  36 NAMED   H2ORHF
 READING COORDINATES OF FRAGMENT  37 NAMED   H2ORHF
 READING COORDINATES OF FRAGMENT  38 NAMED   H2ORHF
 READING COORDINATES OF FRAGMENT  39 NAMED   H2ORHF
 READING COORDINATES OF FRAGMENT  40 NAMED   H2ORHF
 READING COORDINATES OF FRAGMENT  41 NAMED   H2ORHF
 READING COORDINATES OF FRAGMENT  42 NAMED   H2ORHF
 READING COORDINATES OF FRAGMENT  43 NAMED   H2ORHF
 READING COORDINATES OF FRAGMENT  44 NAMED   H2ORHF
 READING COORDINATES OF FRAGMENT  45 NAMED   H2ORHF
 READING COORDINATES OF FRAGMENT  46 NAMED   H2ORHF
 READING COORDINATES OF FRAGMENT  47 NAMED   H2ORHF
 READING COORDINATES OF FRAGMENT  48 NAMED   H2ORHF
 READING COORDINATES OF FRAGMENT  49 NAMED   H2ORHF
 READING COORDINATES OF FRAGMENT  50 NAMED   H2ORHF
 FINISHED READING $EFRAG GROUP,  50 FRAGMENTS WILL BE USED.



     SUMMARY OF THE EFFECTIVE FRAGMENT POTENTIAL MODEL CHOSEN
     --------------------------------------------------------
 TOTAL NUMBER OF MULTIPOLE POINTS   =       400  (EFP1/EFP2 ELECTROSTATICS)
 TOTAL NUMBER OF POLARIZABLE POINTS =       250  (EFP1/EFP2 INDUCTION)
 TOTAL NUMBER OF L-J POINTS         =         0  (REPULSION AND DISPERSION)
 TOTAL NUMBER OF REPULSIVE POINTS   =       150  (EFP1 REPULSION/ETC.)

 THIS IS A -EFP1- TYPE RUN, WITH PAULI REPULSION, CHARGE TRANSFER, AND
 HIGHER ORDER EFFECTS COLLECTED IN A FITTED REPULSIVE POTENTIAL.

 OPTIONS FOR EFP SCREENING:
     ELECTROSTATIC AB INITIO-EFP GAUSSIAN SCREENING IS ON
     ELECTROSTATIC EFP-EFP SCREENING CHOICE IS GAUSSIAN, FOR CHARGE/CHARGE
     POLARIZATION EFP-EFP SCREENING IS OFF

     $EWALD OPTIONS
     -----------

     IFEWLD   =        F         TINFOIL        =        T
     BETA    =    0.200         ELECTRIC CONST =     1.00
     EPSILON =     1.00         CUT_OFF        = 0.10E+04
     CUTLIST =  1000.00         LEVEL          =    1
     KMAX    =       10         EWLDPL         =        F

            MULTIPOLE COORDINATES, ELECTRONIC AND NUCLEAR CHARGES

                  X              Y              Z           ELEC.   NUC.
 ZO1        6.6467227048  -5.4571826717 -11.1239813311    8.00000    0.0
 ZH2        8.2539199938  -5.7722584855 -11.8304007223    1.00000    0.0
 ZH3        6.9250206888  -4.6757077957  -9.5449843390    1.00000    0.0
 O1         6.6467227048  -5.4571826717 -11.1239813311   -8.21083    0.0
 H2         8.2539199938  -5.7722584855 -11.8304007223   -0.55665    0.0
 H3         6.9250206888  -4.6757077957  -9.5449843390   -0.55665    0.0
 B12        7.4503209066  -5.6147206881 -11.4771912316   -0.33793    0.0
 B13        6.7858712541  -5.0664453432 -10.3344830400   -0.33793    0.0
 ZO1        3.5471334021  -0.3823881315 -14.2827234790    8.00000    0.0
 ZH2        5.0571751236  -1.1416923286 -13.7129731947    1.00000    0.0
 ZH3        2.6559817920  -1.6321194632 -15.1912413141    1.00000    0.0
 O1         3.5471334021  -0.3823881315 -14.2827234790   -8.21083    0.0
 H2         5.0571751236  -1.1416923286 -13.7129731947   -0.55665    0.0
 H3         2.6559817920  -1.6321194632 -15.1912413141   -0.55665    0.0
 B12        4.3021541175  -0.7620397583 -13.9978482573   -0.33793    0.0
 B13        3.1015574517  -1.0072533256 -14.7369823170   -0.33793    0.0
 ZO1        4.9495055898   3.7148049963 -10.8506254515    8.00000    0.0
 ZH2        3.7438433971   3.1205001389 -12.0230437489    1.00000    0.0
 ZH3        4.3524173427   3.2681999215  -9.2303125857    1.00000    0.0
 O1         4.9495055898   3.7148049963 -10.8506254515   -8.21083    0.0
 H2         3.7438433971   3.1205001389 -12.0230437489   -0.55665    0.0
 H3         4.3524173427   3.2681999215  -9.2303125857   -0.55665    0.0
 B12        4.3466749168   3.4176528120 -11.4368347054   -0.33793    0.0
 B13        4.6509618896   3.4915027033 -10.0404691238   -0.33793    0.0
 ZO1        1.9828099773  -4.3848051010  -2.8163081635    8.00000    0.0
 ZH2        0.3977197952  -3.8694224897  -3.4513310995    1.00000    0.0
 ZH3        2.0031823059  -3.9615472180  -1.0837314744    1.00000    0.0
 O1         1.9828099773  -4.3848051010  -2.8163081635   -8.21083    0.0
 H2         0.3977197952  -3.8694224897  -3.4513310995   -0.55665    0.0
 H3         2.0031823059  -3.9615472180  -1.0837314744   -0.55665    0.0
 B12        1.1902652537  -4.1271140157  -3.1338198892   -0.33793    0.0
 B13        1.9929965090  -4.1731763799  -1.9500200767   -0.33793    0.0
 ZO1        6.8146373705  -2.7244206403  -6.6284492313    8.00000    0.0
 ZH2        7.7240659689  -1.3195513849  -6.0114676674    1.00000    0.0
 ZH3        6.0183394081  -3.4777479541  -5.2213984988    1.00000    0.0
 O1         6.8146373705  -2.7244206403  -6.6284492313   -8.21083    0.0
 H2         7.7240659689  -1.3195513849  -6.0114676674   -0.55665    0.0
 H3         6.0183394081  -3.4777479541  -5.2213984988   -0.55665    0.0
 B12        7.2693516431  -2.0219861656  -6.3199589247   -0.33793    0.0
 B13        6.4164883627  -3.1010844502  -5.9249243403   -0.33793    0.0
 ZO1        1.4076745814   6.3350522433  11.0813944779    8.00000    0.0
 ZH2        3.1414115287   6.1768602562  10.6934308926    1.00000    0.0
 ZH3        0.5929495307   4.9131976473  10.3771666380    1.00000    0.0
 O1         1.4076745814   6.3350522433  11.0813944779   -8.21083    0.0
 H2         3.1414115287   6.1768602562  10.6934308926   -0.55665    0.0
 H3         0.5929495307   4.9131976473  10.3771666380   -0.55665    0.0
 B12        2.2745428392   6.2559566208  10.8874129417   -0.33793    0.0
 B13        1.0003118402   5.6241253163  10.7292808144   -0.33793    0.0
 ZO1        2.5017067038  -8.7052930479 -12.4739028359    8.00000    0.0
 ZH2        2.6795379119  -9.5213029768 -10.8978672691    1.00000    0.0
 ZH3        3.7948549139  -7.4802530812 -12.5657126251    1.00000    0.0
 O1         2.5017067038  -8.7052930479 -12.4739028359   -8.21083    0.0
 H2         2.6795379119  -9.5213029768 -10.8978672691   -0.55665    0.0
 H3         3.7948549139  -7.4802530812 -12.5657126251   -0.55665    0.0
 B12        2.5906219624  -9.1132981084 -11.6858854010   -0.33793    0.0
 B13        3.1482804634  -8.0927731606 -12.5198080790   -0.33793    0.0
 ZO1        2.6088206295  -7.1030452252   2.8951485850    8.00000    0.0
 ZH2        2.0278107975  -7.6371767018   4.4946845775    1.00000    0.0
 ZH3        1.3798411618  -7.6123169262   1.7070256734    1.00000    0.0
 O1         2.6088206295  -7.1030452252   2.8951485850   -8.21083    0.0
 H2         2.0278107975  -7.6371767018   4.4946845775   -0.55665    0.0
 H3         1.3798411618  -7.6123169262   1.7070256734   -0.55665    0.0
 B12        2.3183161385  -7.3701107185   3.6949164847   -0.33793    0.0
 B13        1.9943313207  -7.3576808307   2.3010870326   -0.33793    0.0
 ZO1       -7.1082980257   0.3639048169 -11.2274751604    8.00000    0.0
 ZH2       -8.4978482510   0.6833472728 -12.2991518557    1.00000    0.0
 ZH3       -7.6548996998   0.7041718030  -9.5640962984    1.00000    0.0
 O1        -7.1082980257   0.3639048169 -11.2274751604   -8.21083    0.0
 H2        -8.4978482510   0.6833472728 -12.2991518557   -0.55665    0.0
 H3        -7.6548996998   0.7041718030  -9.5640962984   -0.55665    0.0
 B12       -7.8030726837   0.5236258899 -11.7633136470   -0.33793    0.0
 B13       -7.3815984081   0.5340381550 -10.3957858683   -0.33793    0.0
 ZO1       -1.1105578600  -0.8243067009 -10.9311969440    8.00000    0.0
 ZH2        0.6373886629  -0.8955040966 -11.2790448056    1.00000    0.0
 ZH3       -1.9456517414  -0.7857158562 -12.5067962606    1.00000    0.0
 O1        -1.1105578600  -0.8243067009 -10.9311969440   -8.21083    0.0
 H2         0.6373886629  -0.8955040966 -11.2790448056   -0.55665    0.0
 H3        -1.9456517414  -0.7857158562 -12.5067962606   -0.55665    0.0
 B12       -0.2365848129  -0.8599053911 -11.1051204231   -0.33793    0.0
 B13       -1.5281050151  -0.8050112709 -11.7189961506   -0.33793    0.0
 ZO1       10.6800707062  -0.1520136074   8.2792984348    8.00000    0.0
 ZH2       12.1418808426  -1.1719938330   8.3436079622    1.00000    0.0
 ZH3        9.5327018499  -0.9689253962   7.1849565835    1.00000    0.0
 O1        10.6800707062  -0.1520136074   8.2792984348   -8.21083    0.0
 H2        12.1418808426  -1.1719938330   8.3436079622   -0.55665    0.0
 H3         9.5327018499  -0.9689253962   7.1849565835   -0.55665    0.0
 B12       11.4109757006  -0.6620032889   8.3114534404   -0.33793    0.0
 B13       10.1063862042  -0.5604690705   7.7321277510   -0.33793    0.0
 ZO1        2.3576117256  -8.8394351677  -6.5496808508    8.00000    0.0
 ZH2        2.5826948249  -7.0981204147  -6.2357624218    1.00000    0.0
 ZH3        1.0771649415  -9.3988762854  -5.4411386010    1.00000    0.0
 O1         2.3576117256  -8.8394351677  -6.5496808508   -8.21083    0.0
 H2         2.5826948249  -7.0981204147  -6.2357624218   -0.55665    0.0
 H3         1.0771649415  -9.3988762854  -5.4411386010   -0.55665    0.0
 B12        2.4701535231  -7.9687780687  -6.3927219703   -0.33793    0.0
 B13        1.7173885813  -9.1191560041  -5.9954100599   -0.33793    0.0
 ZO1       10.1694353189   1.7283565875  -5.7489786295    8.00000    0.0
 ZH2        9.2236429647   2.8834354484  -6.7250185357    1.00000    0.0
 ZH3       10.4356215348   2.4963014269  -4.1612790758    1.00000    0.0
 O1        10.1694353189   1.7283565875  -5.7489786295   -8.21083    0.0
 H2         9.2236429647   2.8834354484  -6.7250185357   -0.55665    0.0
 H3        10.4356215348   2.4963014269  -4.1612790758   -0.55665    0.0
 B12        9.6965393014   2.3058955664  -6.2369987262   -0.33793    0.0
 B13       10.3025285864   2.1123285556  -4.9551289963   -0.33793    0.0
 ZO1       -9.8391077897   0.4097477636  -6.1088807544    8.00000    0.0
 ZH2       -9.5323118767   1.5021037969  -4.7326471932    1.00000    0.0
 ZH3      -11.5362914749  -0.1217653755  -5.9730662772    1.00000    0.0
 O1        -9.8391077897   0.4097477636  -6.1088807544   -8.21083    0.0
 H2        -9.5323118767   1.5021037969  -4.7326471932   -0.55665    0.0
 H3       -11.5362914749  -0.1217653755  -5.9730662772   -0.55665    0.0
 B12       -9.6857095067   0.9559256486  -5.4207643288   -0.33793    0.0
 B13      -10.6876993058   0.1439910624  -6.0409738708   -0.33793    0.0
 ZO1       -1.2638305710   4.1804666528  -7.8246522443    8.00000    0.0
 ZH2       -1.0124734961   3.2148423581  -9.3030884428    1.00000    0.0
 ZH3       -3.0272769633   4.3084053783  -7.5895506602    1.00000    0.0
 O1        -1.2638305710   4.1804666528  -7.8246522443   -8.21083    0.0
 H2        -1.0124734961   3.2148423581  -9.3030884428   -0.55665    0.0
 H3        -3.0272769633   4.3084053783  -7.5895506602   -0.55665    0.0
 B12       -1.1381516785   3.6976547022  -8.5638700516   -0.33793    0.0
 B13       -2.1455534121   4.2444362123  -7.7071011603   -0.33793    0.0
 ZO1       -0.4606100648  -9.3859288787   6.4865699712    8.00000    0.0
 ZH2       -0.7096833305  -8.2088643635   7.8033333843    1.00000    0.0
 ZH3       -2.0319990735  -9.5753306945   5.6642271072    1.00000    0.0
 O1        -0.4606100648  -9.3859288787   6.4865699712   -8.21083    0.0
 H2        -0.7096833305  -8.2088643635   7.8033333843   -0.55665    0.0
 H3        -2.0319990735  -9.5753306945   5.6642271072   -0.55665    0.0
 B12       -0.5851462702  -8.7973968530   7.1449515617   -0.33793    0.0
 B13       -1.2463041417  -9.4806300185   6.0753984231   -0.33793    0.0
 ZO1       -2.5818000737 -11.9050298033  -2.2741571401    8.00000    0.0
 ZH2       -2.7274094328 -13.6441678195  -2.6423705642    1.00000    0.0
 ZH3       -3.5074742310 -11.0364666541  -3.5271973074    1.00000    0.0
 O1        -2.5818000737 -11.9050298033  -2.2741571401   -8.21083    0.0
 H2        -2.7274094328 -13.6441678195  -2.6423705642   -0.55665    0.0
 H3        -3.5074742310 -11.0364666541  -3.5271973074   -0.55665    0.0
 B12       -2.6546045017 -12.7745986070  -2.4582634714   -0.33793    0.0
 B13       -3.0446369008 -11.4707480243  -2.9006768430   -0.33793    0.0
 ZO1       -9.7747355416   4.1411048233  -0.8327950874    8.00000    0.0
 ZH2       -9.5133713000   2.6607060542   0.1271489049    1.00000    0.0
 ZH3       -8.2804830876   5.1064370560  -0.7034601159    1.00000    0.0
 O1        -9.7747355416   4.1411048233  -0.8327950874   -8.21083    0.0
 H2        -9.5133713000   2.6607060542   0.1271489049   -0.55665    0.0
 H3        -8.2804830876   5.1064370560  -0.7034601159   -0.55665    0.0
 B12       -9.6440538331   3.4009055597  -0.3528233470   -0.33793    0.0
 B13       -9.0276097269   4.6237710606  -0.7681278574   -0.33793    0.0
 ZO1        1.7452803246   9.3410368774  -6.8371231734    8.00000    0.0
 ZH2        0.9081261709  10.0414444149  -5.4264543764    1.00000    0.0
 ZH3        0.9187327533   7.8059695493  -7.2136489513    1.00000    0.0
 O1         1.7452803246   9.3410368774  -6.8371231734   -8.21083    0.0
 H2         0.9081261709  10.0414444149  -5.4264543764   -0.55665    0.0
 H3         0.9187327533   7.8059695493  -7.2136489513   -0.55665    0.0
 B12        1.3267036384   9.6912408421  -6.1317890177   -0.33793    0.0
 B13        1.3320069296   8.5735034093  -7.0253863052   -0.33793    0.0
 ZO1       12.6085272235 -14.3618717582   5.9978780792    8.00000    0.0
 ZH2       11.6935209036 -15.8908974530   6.0767964532    1.00000    0.0
 ZH3       11.4895067597 -13.0681251505   6.5032464274    1.00000    0.0
 O1        12.6085272235 -14.3618717582   5.9978780792   -8.21083    0.0
 H2        11.6935209036 -15.8908974530   6.0767964532   -0.55665    0.0
 H3        11.4895067597 -13.0681251505   6.5032464274   -0.55665    0.0
 B12       12.1510245412 -15.1263845504   6.0373371290   -0.33793    0.0
 B13       12.0490174692 -13.7149983991   6.2505621161   -0.33793    0.0
 ZO1       16.1552814825   4.7850264023   1.7667091093    8.00000    0.0
 ZH2       15.8500594485   5.0358181376   0.0273623164    1.00000    0.0
 ZH3       17.1181123780   3.2902355877   1.9079229117    1.00000    0.0
 O1        16.1552814825   4.7850264023   1.7667091093   -8.21083    0.0
 H2        15.8500594485   5.0358181376   0.0273623164   -0.55665    0.0
 H3        17.1181123780   3.2902355877   1.9079229117   -0.55665    0.0
 B12       16.0026703111   4.9104225621   0.8970360881   -0.33793    0.0
 B13       16.6366967758   4.0376312871   1.8373163858   -0.33793    0.0
 ZO1       -9.3705146623   0.6914205680   3.4573079099    8.00000    0.0
 ZH2       -9.4906547248   1.8676330559   4.7927759175    1.00000    0.0
 ZH3       -8.0333234386  -0.4153291266   3.8676845606    1.00000    0.0
 O1        -9.3705146623   0.6914205680   3.4573079099   -8.21083    0.0
 H2        -9.4906547248   1.8676330559   4.7927759175   -0.55665    0.0
 H3        -8.0333234386  -0.4153291266   3.8676845606   -0.55665    0.0
 B12       -9.4305849793   1.2795267956   4.1250415038   -0.33793    0.0
 B13       -8.7019193362   0.1380457044   3.6624958253   -0.33793    0.0
 ZO1       -4.9331601182  -9.8595045128  -6.6207011996    8.00000    0.0
 ZH2       -4.1526125047  -8.5367962192  -7.5276589957    1.00000    0.0
 ZH3       -6.6750046670  -9.4806155397  -6.5590168053    1.00000    0.0
 O1        -4.9331601182  -9.8595045128  -6.6207011996   -8.21083    0.0
 H2        -4.1526125047  -8.5367962192  -7.5276589957   -0.55665    0.0
 H3        -6.6750046670  -9.4806155397  -6.5590168053   -0.55665    0.0
 B12       -4.5428860857  -9.1981507655  -7.0741798991   -0.33793    0.0
 B13       -5.8040821668  -9.6700604258  -6.5898588039   -0.33793    0.0
 ZO1      -14.4026451903  -2.6003817361  -2.8176183280    8.00000    0.0
 ZH2      -15.0923795021  -2.4374185249  -1.1808245653    1.00000    0.0
 ZH3      -15.1295783405  -4.0616499809  -3.5370956124    1.00000    0.0
 O1       -14.4026451903  -2.6003817361  -2.8176183280   -8.21083    0.0
 H2       -15.0923795021  -2.4374185249  -1.1808245653   -0.55665    0.0
 H3       -15.1295783405  -4.0616499809  -3.5370956124   -0.55665    0.0
 B12      -14.7475120135  -2.5188998256  -1.9992216621   -0.33793    0.0
 B13      -14.7661114327  -3.3310155536  -3.1773571856   -0.33793    0.0
 ZO1      -14.1934846540   6.1847498170   2.0602587135    8.00000    0.0
 ZH2      -12.7783740467   6.2894508328   0.9795719332    1.00000    0.0
 ZH3      -15.6322794768   6.0756458702   1.0117597687    1.00000    0.0
 O1       -14.1934846540   6.1847498170   2.0602587135   -8.21083    0.0
 H2       -12.7783740467   6.2894508328   0.9795719332   -0.55665    0.0
 H3       -15.6322794768   6.0756458702   1.0117597687   -0.55665    0.0
 B12      -13.4859293448   6.2371003259   1.5199158233   -0.33793    0.0
 B13      -14.9128820599   6.1301978446   1.5360097411   -0.33793    0.0
 ZO1        7.1055418947   7.2979141043  -7.4938141455    8.00000    0.0
 ZH2        7.3680291400   7.1664648839  -9.2531338433    1.00000    0.0
 ZH3        5.4283740925   7.8607264618  -7.2663615912    1.00000    0.0
 O1         7.1055418947   7.2979141043  -7.4938141455   -8.21083    0.0
 H2         7.3680291400   7.1664648839  -9.2531338433   -0.55665    0.0
 H3         5.4283740925   7.8607264618  -7.2663615912   -0.55665    0.0
 B12        7.2367858495   7.2321893928  -8.3734736347   -0.33793    0.0
 B13        6.2669583258   7.5793201817  -7.3800875086   -0.33793    0.0
 ZO1        6.8480006875  12.1958251087  -4.6092057453    8.00000    0.0
 ZH2        8.0945584466  11.3882348042  -5.5967663278    1.00000    0.0
 ZH3        5.2768591628  11.5171574037  -5.1115091458    1.00000    0.0
 O1         6.8480006875  12.1958251087  -4.6092057453   -8.21083    0.0
 H2         8.0945584466  11.3882348042  -5.5967663278   -0.55665    0.0
 H3         5.2768591628  11.5171574037  -5.1115091458   -0.55665    0.0
 B12        7.4712796433  11.7920303055  -5.1029856867   -0.33793    0.0
 B13        6.0624300014  11.8564916052  -4.8603570957   -0.33793    0.0
 ZO1       -6.2824214873  -4.6564065054   5.2177681996    8.00000    0.0
 ZH2       -7.9144232738  -5.2080475102   4.7555489646    1.00000    0.0
 ZH3       -5.1262673854  -5.6038980344   4.2446537428    1.00000    0.0
 O1        -6.2824214873  -4.6564065054   5.2177681996   -8.21083    0.0
 H2        -7.9144232738  -5.2080475102   4.7555489646   -0.55665    0.0
 H3        -5.1262673854  -5.6038980344   4.2446537428   -0.55665    0.0
 B12       -7.0984222688  -4.9322266558   4.9866589191   -0.33793    0.0
 B13       -5.7043443246  -5.1301519179   4.7312113082   -0.33793    0.0
 ZO1       -5.8358362486   5.7415426304   8.1572249388    8.00000    0.0
 ZH2       -4.6409465702   6.9154481102   7.5443882300    1.00000    0.0
 ZH3       -4.9291783060   4.2704746762   8.5991691661    1.00000    0.0
 O1        -5.8358362486   5.7415426304   8.1572249388   -8.21083    0.0
 H2        -4.6409465702   6.9154481102   7.5443882300   -0.55665    0.0
 H3        -4.9291783060   4.2704746762   8.5991691661   -0.55665    0.0
 B12       -5.2383919029   6.3284954400   7.8508066245   -0.33793    0.0
 B13       -5.3825077708   5.0060087231   8.3781970926   -0.33793    0.0
 ZO1        0.3242546419   9.8462483495  -0.4747146594    8.00000    0.0
 ZH2       -0.6870607244   9.6297497364   0.9784728134    1.00000    0.0
 ZH3        1.9443594057  10.3276720868   0.0952642790    1.00000    0.0
 O1         0.3242546419   9.8462483495  -0.4747146594   -8.21083    0.0
 H2        -0.6870607244   9.6297497364   0.9784728134   -0.55665    0.0
 H3         1.9443594057  10.3276720868   0.0952642790   -0.55665    0.0
 B12       -0.1814031842   9.7379989808   0.2518786019   -0.33793    0.0
 B13        1.1343068808  10.0869601559  -0.1897256653   -0.33793    0.0
 ZO1        7.4595087686  -2.7521886176   4.5818552264    8.00000    0.0
 ZH2        5.9689414508  -1.8651792251   4.1661538198    1.00000    0.0
 ZH3        7.0342045688  -4.4841407698   4.6108781615    1.00000    0.0
 O1         7.4595087686  -2.7521886176   4.5818552264   -8.21083    0.0
 H2         5.9689414508  -1.8651792251   4.1661538198   -0.55665    0.0
 H3         7.0342045688  -4.4841407698   4.6108781615   -0.55665    0.0
 B12        6.7142255596  -2.3086837230   4.3740046139   -0.33793    0.0
 B13        7.2468571186  -3.6181644953   4.5963667847   -0.33793    0.0
 ZO1       -1.9264653571  -6.2163529890  -9.3702707261    8.00000    0.0
 ZH2       -2.2141913304  -4.5271011462  -9.8652719650    1.00000    0.0
 ZH3       -0.6361909834  -6.8477077648 -10.4276105194    1.00000    0.0
 O1        -1.9264653571  -6.2163529890  -9.3702707261   -8.21083    0.0
 H2        -2.2141913304  -4.5271011462  -9.8652719650   -0.55665    0.0
 H3        -0.6361909834  -6.8477077648 -10.4276105194   -0.55665    0.0
 B12       -2.0703285792  -5.3717273160  -9.6177709810   -0.33793    0.0
 B13       -1.2813284057  -6.5320306253  -9.8989402582   -0.33793    0.0
 ZO1        7.2375686478 -11.9529485363   7.6441664500    8.00000    0.0
 ZH2        7.1070557243 -12.2909710594   9.3906175376    1.00000    0.0
 ZH3        5.5926978306 -11.5672015382   7.0723417401    1.00000    0.0
 O1         7.2375686478 -11.9529485363   7.6441664500   -8.21083    0.0
 H2         7.1070557243 -12.2909710594   9.3906175376   -0.55665    0.0
 H3         5.5926978306 -11.5672015382   7.0723417401   -0.55665    0.0
 B12        7.1723126029 -12.1219598090   8.5173917180   -0.33793    0.0
 B13        6.4151336561 -11.7600750485   7.3582538193   -0.33793    0.0
 ZO1       -4.8817420535  -9.8540124568   2.6251977927    8.00000    0.0
 ZH2       -6.2013068718 -11.0445688241   2.7758911154    1.00000    0.0
 ZH3       -3.9345231329 -10.3179082845   1.1868093792    1.00000    0.0
 O1        -4.8817420535  -9.8540124568   2.6251977927   -8.21083    0.0
 H2        -6.2013068718 -11.0445688241   2.7758911154   -0.55665    0.0
 H3        -3.9345231329 -10.3179082845   1.1868093792   -0.55665    0.0
 B12       -5.5415243752 -10.4492902519   2.7005447565   -0.33793    0.0
 B13       -4.4081325058 -10.0859599822   1.9060038884   -0.33793    0.0
 ZO1       -6.1890903289  -2.3613377120  10.2570695130    8.00000    0.0
 ZH2       -7.7746015839  -2.0478707314  11.0115738292    1.00000    0.0
 ZH3       -6.4911189612  -3.4098307281   8.8461034074    1.00000    0.0
 O1        -6.1890903289  -2.3613377120  10.2570695130   -8.21083    0.0
 H2        -7.7746015839  -2.0478707314  11.0115738292   -0.55665    0.0
 H3        -6.4911189612  -3.4098307281   8.8461034074   -0.55665    0.0
 B12       -6.9818455132  -2.2046040491  10.6343218253   -0.33793    0.0
 B13       -6.3401042019  -2.8855840475   9.5515866144   -0.33793    0.0
 ZO1       11.0245892007   5.7669365242   7.0892637924    8.00000    0.0
 ZH2       12.4402483791   5.6557202967   6.0099472067    1.00000    0.0
 ZH3       10.1427688184   4.2238396729   6.9388338362    1.00000    0.0
 O1        11.0245892007   5.7669365242   7.0892637924   -8.21083    0.0
 H2        12.4402483791   5.6557202967   6.0099472067   -0.55665    0.0
 H3        10.1427688184   4.2238396729   6.9388338362   -0.55665    0.0
 B12       11.7324186646   5.7113287989   6.5496057883   -0.33793    0.0
 B13       10.5836788842   4.9953884870   7.0140491031   -0.33793    0.0
 ZO1        3.4836752778   8.5462051150   4.5921588557    8.00000    0.0
 ZH2        4.6176583487   9.4366486002   3.5421221681    1.00000    0.0
 ZH3        4.0400382695   8.7886251211   6.2693818620    1.00000    0.0
 O1         3.4836752778   8.5462051150   4.5921588557   -8.21083    0.0
 H2         4.6176583487   9.4366486002   3.5421221681   -0.55665    0.0
 H3         4.0400382695   8.7886251211   6.2693818620   -0.55665    0.0
 B12        4.0506664163   8.9914265916   4.0671403646   -0.33793    0.0
 B13        3.7618563767   8.6674148520   5.4307702115   -0.33793    0.0
 ZO1      -10.7733378578   4.2724085986   6.4610990548    8.00000    0.0
 ZH2      -11.8726079629   5.0870957424   5.3168637886    1.00000    0.0
 ZH3       -9.3328272424   5.3126149322   6.6169329445    1.00000    0.0
 O1       -10.7733378578   4.2724085986   6.4610990548   -8.21083    0.0
 H2       -11.8726079629   5.0870957424   5.3168637886   -0.55665    0.0
 H3        -9.3328272424   5.3126149322   6.6169329445   -0.55665    0.0
 B12      -11.3229729904   4.6797517349   5.8889816538   -0.33793    0.0
 B13      -10.0530826302   4.7925113298   6.5390162318   -0.33793    0.0
 ZO1       -2.9401856961   1.9006095853  10.9818840646    8.00000    0.0
 ZH2       -3.4811727734   2.3615600155  12.6178064142    1.00000    0.0
 ZH3       -3.6792993553   0.3170935763  10.6247114190    1.00000    0.0
 O1        -2.9401856961   1.9006095853  10.9818840646   -8.21083    0.0
 H2        -3.4811727734   2.3615600155  12.6178064142   -0.55665    0.0
 H3        -3.6792993553   0.3170935763  10.6247114190   -0.55665    0.0
 B12       -3.2106789342   2.1310850640  11.7998449391   -0.33793    0.0
 B13       -3.3097422251   1.1088518444  10.8032974415   -0.33793    0.0
 ZO1       -1.5702907805   9.6190257907   5.1247353209    8.00000    0.0
 ZH2       -0.1021483067   8.6295105018   4.9083989620    1.00000    0.0
 ZH3       -1.2069912235  10.8011094229   6.4100663946    1.00000    0.0
 O1        -1.5702907805   9.6190257907   5.1247353209   -8.21083    0.0
 H2        -0.1021483067   8.6295105018   4.9083989620   -0.55665    0.0
 H3        -1.2069912235  10.8011094229   6.4100663946   -0.55665    0.0
 B12       -0.8362199736   9.1242681011   5.0165668904   -0.33793    0.0
 B13       -1.3886414321  10.2100675616   5.7674006067   -0.33793    0.0
 ZO1       15.8902491443   5.5096087022  -4.7785886110    8.00000    0.0
 ZH2       16.4287041909   7.0423298901  -5.5149419051    1.00000    0.0
 ZH3       15.0049536458   4.6163932687  -6.0434215328    1.00000    0.0
 O1        15.8902491443   5.5096087022  -4.7785886110   -8.21083    0.0
 H2        16.4287041909   7.0423298901  -5.5149419051   -0.55665    0.0
 H3        15.0049536458   4.6163932687  -6.0434215328   -0.55665    0.0
 B12       16.1594767491   6.2759691460  -5.1467647881   -0.33793    0.0
 B13       15.4476014765   5.0630008353  -5.4110046020   -0.33793    0.0
 ZO1        5.4397239461  11.9483211145   0.7050923634    8.00000    0.0
 ZH2        5.1628401360  13.5877623672   1.3508105569    1.00000    0.0
 ZH3        6.1767536335  12.1498493063  -0.9066017386    1.00000    0.0
 O1         5.4397239461  11.9483211145   0.7050923634   -8.21083    0.0
 H2         5.1628401360  13.5877623672   1.3508105569   -0.55665    0.0
 H3         6.1767536335  12.1498493063  -0.9066017386   -0.55665    0.0
 B12        5.3012819330  12.7680413086   1.0279516869   -0.33793    0.0
 B13        5.8082386817  12.0490847781  -0.1007544608   -0.33793    0.0
 ZO1      -12.0459243729  -0.8265967880   8.9330462961    8.00000    0.0
 ZH2      -13.7242898149  -1.0957035128   9.4734676727    1.00000    0.0
 ZH3      -12.0143865911   0.7670269369   8.1325757830    1.00000    0.0
 O1       -12.0459243729  -0.8265967880   8.9330462961   -8.21083    0.0
 H2       -13.7242898149  -1.0957035128   9.4734676727   -0.55665    0.0
 H3       -12.0143865911   0.7670269369   8.1325757830   -0.55665    0.0
 B12      -12.8851067072  -0.9611504614   9.2032570455   -0.33793    0.0
 B13      -12.0301550953  -0.0297852366   8.5328111006   -0.33793    0.0
 ZO1      -12.1510597595  -5.9213876009   5.5383147754    8.00000    0.0
 ZH2      -12.5790991827  -4.7338485024   6.7984407185    1.00000    0.0
 ZH3      -12.9256853579  -5.3694640574   4.0294344505    1.00000    0.0
 O1       -12.1510597595  -5.9213876009   5.5383147754   -8.21083    0.0
 H2       -12.5790991827  -4.7338485024   6.7984407185   -0.55665    0.0
 H3       -12.9256853579  -5.3694640574   4.0294344505   -0.55665    0.0
 B12      -12.3650791887  -5.3276184601   6.1683778054   -0.33793    0.0
 B13      -12.5383722763  -5.6454262376   4.7838746714   -0.33793    0.0
 ZO1        0.7732251549  -4.7518353618 -15.8985907290    8.00000    0.0
 ZH2        0.7784755105  -5.9489592888 -14.5763763031    1.00000    0.0
 ZH3        0.2711423893  -5.6195983422 -17.3738142907    1.00000    0.0
 O1         0.7732251549  -4.7518353618 -15.8985907290   -8.21083    0.0
 H2         0.7784755105  -5.9489592888 -14.5763763031   -0.55665    0.0
 H3         0.2711423893  -5.6195983422 -17.3738142907   -0.55665    0.0
 B12        0.7758504494  -5.3503968404 -15.2374834801   -0.33793    0.0
 B13        0.5221838888  -5.1857163671 -16.6362024739   -0.33793    0.0
 ZO1        1.8240302667  -0.9003206088  11.2641782200    8.00000    0.0
 ZH2        0.5886156504   0.3833822164  11.3492783566    1.00000    0.0
 ZH3        3.3522319683  -0.1106393616  10.7925986004    1.00000    0.0
 O1         1.8240302667  -0.9003206088  11.2641782200   -8.21083    0.0
 H2         0.5886156504   0.3833822164  11.3492783566   -0.55665    0.0
 H3         3.3522319683  -0.1106393616  10.7925986004   -0.55665    0.0
 B12        1.2063228898  -0.2584696831  11.3067283791   -0.33793    0.0
 B13        2.5881310488  -0.5054804721  11.0283885010   -0.33793    0.0
 ZO1        0.0660245446  11.6663392723  10.4374416740    8.00000    0.0
 ZH2        1.0853333863  12.8947866062  11.2332499951    1.00000    0.0
 ZH3        0.8194363021  10.0835226612  10.7667539120    1.00000    0.0
 O1         0.0660245446  11.6663392723  10.4374416740   -8.21083    0.0
 H2         1.0853333863  12.8947866062  11.2332499951   -0.55665    0.0
 H3         0.8194363021  10.0835226612  10.7667539120   -0.55665    0.0
 B12        0.5756785492  12.2805630225  10.8353455704   -0.33793    0.0
 B13        0.4427300071  10.8749310500  10.6020975288   -0.33793    0.0
 ZO1       -1.5927327527  -5.8020239322  10.8260946449    8.00000    0.0
 ZH2       -0.4269622597  -4.4621209189  10.9904823672    1.00000    0.0
 ZH3       -3.1993019329  -5.1350351365  11.2203606288    1.00000    0.0
 O1        -1.5927327527  -5.8020239322  10.8260946449   -8.21083    0.0
 H2        -0.4269622597  -4.4621209189  10.9904823672   -0.55665    0.0
 H3        -3.1993019329  -5.1350351365  11.2203606288   -0.55665    0.0
 B12       -1.0098474027  -5.1320728968  10.9082883749   -0.33793    0.0
 B13       -2.3960172393  -5.4685300056  11.0232275057   -0.33793    0.0
 ZO1        6.4807114249   8.1070324664   9.4328625349    8.00000    0.0
 ZH2        7.8514333980   6.9915630238   9.1915464648    1.00000    0.0
 ZH3        7.0903944805   9.4626805802  10.4187068501    1.00000    0.0
 O1         6.4807114249   8.1070324664   9.4328625349   -8.21083    0.0
 H2         7.8514333980   6.9915630238   9.1915464648   -0.55665    0.0
 H3         7.0903944805   9.4626805802  10.4187068501   -0.55665    0.0
 B12        7.1660719464   7.5492976887   9.3122043250   -0.33793    0.0
 B13        6.7855524877   8.7848564669   9.9257845177   -0.33793    0.0
 ZO1        6.7407277294   1.8767623907  12.1485188769    8.00000    0.0
 ZH2        8.2318034783   1.3456189011  11.3263486056    1.00000    0.0
 ZH3        7.1261613329   1.9903419264  13.8863119823    1.00000    0.0
 O1         6.7407277294   1.8767623907  12.1485188769   -8.21083    0.0
 H2         8.2318034783   1.3456189011  11.3263486056   -0.55665    0.0
 H3         7.1261613329   1.9903419264  13.8863119823   -0.55665    0.0
 B12        7.4862651632   1.6111907440  11.7374335262   -0.33793    0.0
 B13        6.9334440905   1.9335522566  13.0174152146   -0.33793    0.0

   CHARGE SCREENING PARAMETERS (COEF AND ZETA)
   ICHGP=   3 AI-FRAGMENT SCREENING= 1   FRAGMENT-FRAGMENT SCREENING= 1

             GAUSSIAN DAMPING    EXPONENTIAL DAMPING
 ZO1        3.17107   0.30798      3.17107   0.30798
 ZH2       -0.74355   0.22035     -0.74355   0.22035
 ZH3       -0.74355   0.22035     -0.74355   0.22035
 O1         3.06389   0.30817      3.06389   0.30817
 H2        -1.50149   0.23358     -1.50149   0.23358
 H3        -1.50149   0.23358     -1.50149   0.23358
 B12        1.99014   0.44003      1.99014   0.44003
 B13        1.99014   0.44003      1.99014   0.44003
 ZO1        3.17107   0.30798      3.17107   0.30798
 ZH2       -0.74355   0.22035     -0.74355   0.22035
 ZH3       -0.74355   0.22035     -0.74355   0.22035
 O1         3.06389   0.30817      3.06389   0.30817
 H2        -1.50149   0.23358     -1.50149   0.23358
 H3        -1.50149   0.23358     -1.50149   0.23358
 B12        1.99014   0.44003      1.99014   0.44003
 B13        1.99014   0.44003      1.99014   0.44003
 ZO1        3.17107   0.30798      3.17107   0.30798
 ZH2       -0.74355   0.22035     -0.74355   0.22035
 ZH3       -0.74355   0.22035     -0.74355   0.22035
 O1         3.06389   0.30817      3.06389   0.30817
 H2        -1.50149   0.23358     -1.50149   0.23358
 H3        -1.50149   0.23358     -1.50149   0.23358
 B12        1.99014   0.44003      1.99014   0.44003
 B13        1.99014   0.44003      1.99014   0.44003
 ZO1        3.17107   0.30798      3.17107   0.30798
 ZH2       -0.74355   0.22035     -0.74355   0.22035
 ZH3       -0.74355   0.22035     -0.74355   0.22035
 O1         3.06389   0.30817      3.06389   0.30817
 H2        -1.50149   0.23358     -1.50149   0.23358
 H3        -1.50149   0.23358     -1.50149   0.23358
 B12        1.99014   0.44003      1.99014   0.44003
 B13        1.99014   0.44003      1.99014   0.44003
 ZO1        3.17107   0.30798      3.17107   0.30798
 ZH2       -0.74355   0.22035     -0.74355   0.22035
 ZH3       -0.74355   0.22035     -0.74355   0.22035
 O1         3.06389   0.30817      3.06389   0.30817
 H2        -1.50149   0.23358     -1.50149   0.23358
 H3        -1.50149   0.23358     -1.50149   0.23358
 B12        1.99014   0.44003      1.99014   0.44003
 B13        1.99014   0.44003      1.99014   0.44003
 ZO1        3.17107   0.30798      3.17107   0.30798
 ZH2       -0.74355   0.22035     -0.74355   0.22035
 ZH3       -0.74355   0.22035     -0.74355   0.22035
 O1         3.06389   0.30817      3.06389   0.30817
 H2        -1.50149   0.23358     -1.50149   0.23358
 H3        -1.50149   0.23358     -1.50149   0.23358
 B12        1.99014   0.44003      1.99014   0.44003
 B13        1.99014   0.44003      1.99014   0.44003
 ZO1        3.17107   0.30798      3.17107   0.30798
 ZH2       -0.74355   0.22035     -0.74355   0.22035
 ZH3       -0.74355   0.22035     -0.74355   0.22035
 O1         3.06389   0.30817      3.06389   0.30817
 H2        -1.50149   0.23358     -1.50149   0.23358
 H3        -1.50149   0.23358     -1.50149   0.23358
 B12        1.99014   0.44003      1.99014   0.44003
 B13        1.99014   0.44003      1.99014   0.44003
 ZO1        3.17107   0.30798      3.17107   0.30798
 ZH2       -0.74355   0.22035     -0.74355   0.22035
 ZH3       -0.74355   0.22035     -0.74355   0.22035
 O1         3.06389   0.30817      3.06389   0.30817
 H2        -1.50149   0.23358     -1.50149   0.23358
 H3        -1.50149   0.23358     -1.50149   0.23358
 B12        1.99014   0.44003      1.99014   0.44003
 B13        1.99014   0.44003      1.99014   0.44003
 ZO1        3.17107   0.30798      3.17107   0.30798
 ZH2       -0.74355   0.22035     -0.74355   0.22035
 ZH3       -0.74355   0.22035     -0.74355   0.22035
 O1         3.06389   0.30817      3.06389   0.30817
 H2        -1.50149   0.23358     -1.50149   0.23358
 H3        -1.50149   0.23358     -1.50149   0.23358
 B12        1.99014   0.44003      1.99014   0.44003
 B13        1.99014   0.44003      1.99014   0.44003
 ZO1        3.17107   0.30798      3.17107   0.30798
 ZH2       -0.74355   0.22035     -0.74355   0.22035
 ZH3       -0.74355   0.22035     -0.74355   0.22035
 O1         3.06389   0.30817      3.06389   0.30817
 H2        -1.50149   0.23358     -1.50149   0.23358
 H3        -1.50149   0.23358     -1.50149   0.23358
 B12        1.99014   0.44003      1.99014   0.44003
 B13        1.99014   0.44003      1.99014   0.44003
 ZO1        3.17107   0.30798      3.17107   0.30798
 ZH2       -0.74355   0.22035     -0.74355   0.22035
 ZH3       -0.74355   0.22035     -0.74355   0.22035
 O1         3.06389   0.30817      3.06389   0.30817
 H2        -1.50149   0.23358     -1.50149   0.23358
 H3        -1.50149   0.23358     -1.50149   0.23358
 B12        1.99014   0.44003      1.99014   0.44003
 B13        1.99014   0.44003      1.99014   0.44003
 ZO1        3.17107   0.30798      3.17107   0.30798
 ZH2       -0.74355   0.22035     -0.74355   0.22035
 ZH3       -0.74355   0.22035     -0.74355   0.22035
 O1         3.06389   0.30817      3.06389   0.30817
 H2        -1.50149   0.23358     -1.50149   0.23358
 H3        -1.50149   0.23358     -1.50149   0.23358
 B12        1.99014   0.44003      1.99014   0.44003
 B13        1.99014   0.44003      1.99014   0.44003
 ZO1        3.17107   0.30798      3.17107   0.30798
 ZH2       -0.74355   0.22035     -0.74355   0.22035
 ZH3       -0.74355   0.22035     -0.74355   0.22035
 O1         3.06389   0.30817      3.06389   0.30817
 H2        -1.50149   0.23358     -1.50149   0.23358
 H3        -1.50149   0.23358     -1.50149   0.23358
 B12        1.99014   0.44003      1.99014   0.44003
 B13        1.99014   0.44003      1.99014   0.44003
 ZO1        3.17107   0.30798      3.17107   0.30798
 ZH2       -0.74355   0.22035     -0.74355   0.22035
 ZH3       -0.74355   0.22035     -0.74355   0.22035
 O1         3.06389   0.30817      3.06389   0.30817
 H2        -1.50149   0.23358     -1.50149   0.23358
 H3        -1.50149   0.23358     -1.50149   0.23358
 B12        1.99014   0.44003      1.99014   0.44003
 B13        1.99014   0.44003      1.99014   0.44003
 ZO1        3.17107   0.30798      3.17107   0.30798
 ZH2       -0.74355   0.22035     -0.74355   0.22035
 ZH3       -0.74355   0.22035     -0.74355   0.22035
 O1         3.06389   0.30817      3.06389   0.30817
 H2        -1.50149   0.23358     -1.50149   0.23358
 H3        -1.50149   0.23358     -1.50149   0.23358
 B12        1.99014   0.44003      1.99014   0.44003
 B13        1.99014   0.44003      1.99014   0.44003
 ZO1        3.17107   0.30798      3.17107   0.30798
 ZH2       -0.74355   0.22035     -0.74355   0.22035
 ZH3       -0.74355   0.22035     -0.74355   0.22035
 O1         3.06389   0.30817      3.06389   0.30817
 H2        -1.50149   0.23358     -1.50149   0.23358
 H3        -1.50149   0.23358     -1.50149   0.23358
 B12        1.99014   0.44003      1.99014   0.44003
 B13        1.99014   0.44003      1.99014   0.44003
 ZO1        3.17107   0.30798      3.17107   0.30798
 ZH2       -0.74355   0.22035     -0.74355   0.22035
 ZH3       -0.74355   0.22035     -0.74355   0.22035
 O1         3.06389   0.30817      3.06389   0.30817
 H2        -1.50149   0.23358     -1.50149   0.23358
 H3        -1.50149   0.23358     -1.50149   0.23358
 B12        1.99014   0.44003      1.99014   0.44003
 B13        1.99014   0.44003      1.99014   0.44003
 ZO1        3.17107   0.30798      3.17107   0.30798
 ZH2       -0.74355   0.22035     -0.74355   0.22035
 ZH3       -0.74355   0.22035     -0.74355   0.22035
 O1         3.06389   0.30817      3.06389   0.30817
 H2        -1.50149   0.23358     -1.50149   0.23358
 H3        -1.50149   0.23358     -1.50149   0.23358
 B12        1.99014   0.44003      1.99014   0.44003
 B13        1.99014   0.44003      1.99014   0.44003
 ZO1        3.17107   0.30798      3.17107   0.30798
 ZH2       -0.74355   0.22035     -0.74355   0.22035
 ZH3       -0.74355   0.22035     -0.74355   0.22035
 O1         3.06389   0.30817      3.06389   0.30817
 H2        -1.50149   0.23358     -1.50149   0.23358
 H3        -1.50149   0.23358     -1.50149   0.23358
 B12        1.99014   0.44003      1.99014   0.44003
 B13        1.99014   0.44003      1.99014   0.44003
 ZO1        3.17107   0.30798      3.17107   0.30798
 ZH2       -0.74355   0.22035     -0.74355   0.22035
 ZH3       -0.74355   0.22035     -0.74355   0.22035
 O1         3.06389   0.30817      3.06389   0.30817
 H2        -1.50149   0.23358     -1.50149   0.23358
 H3        -1.50149   0.23358     -1.50149   0.23358
 B12        1.99014   0.44003      1.99014   0.44003
 B13        1.99014   0.44003      1.99014   0.44003
 ZO1        3.17107   0.30798      3.17107   0.30798
 ZH2       -0.74355   0.22035     -0.74355   0.22035
 ZH3       -0.74355   0.22035     -0.74355   0.22035
 O1         3.06389   0.30817      3.06389   0.30817
 H2        -1.50149   0.23358     -1.50149   0.23358
 H3        -1.50149   0.23358     -1.50149   0.23358
 B12        1.99014   0.44003      1.99014   0.44003
 B13        1.99014   0.44003      1.99014   0.44003
 ZO1        3.17107   0.30798      3.17107   0.30798
 ZH2       -0.74355   0.22035     -0.74355   0.22035
 ZH3       -0.74355   0.22035     -0.74355   0.22035
 O1         3.06389   0.30817      3.06389   0.30817
 H2        -1.50149   0.23358     -1.50149   0.23358
 H3        -1.50149   0.23358     -1.50149   0.23358
 B12        1.99014   0.44003      1.99014   0.44003
 B13        1.99014   0.44003      1.99014   0.44003
 ZO1        3.17107   0.30798      3.17107   0.30798
 ZH2       -0.74355   0.22035     -0.74355   0.22035
 ZH3       -0.74355   0.22035     -0.74355   0.22035
 O1         3.06389   0.30817      3.06389   0.30817
 H2        -1.50149   0.23358     -1.50149   0.23358
 H3        -1.50149   0.23358     -1.50149   0.23358
 B12        1.99014   0.44003      1.99014   0.44003
 B13        1.99014   0.44003      1.99014   0.44003
 ZO1        3.17107   0.30798      3.17107   0.30798
 ZH2       -0.74355   0.22035     -0.74355   0.22035
 ZH3       -0.74355   0.22035     -0.74355   0.22035
 O1         3.06389   0.30817      3.06389   0.30817
 H2        -1.50149   0.23358     -1.50149   0.23358
 H3        -1.50149   0.23358     -1.50149   0.23358
 B12        1.99014   0.44003      1.99014   0.44003
 B13        1.99014   0.44003      1.99014   0.44003
 ZO1        3.17107   0.30798      3.17107   0.30798
 ZH2       -0.74355   0.22035     -0.74355   0.22035
 ZH3       -0.74355   0.22035     -0.74355   0.22035
 O1         3.06389   0.30817      3.06389   0.30817
 H2        -1.50149   0.23358     -1.50149   0.23358
 H3        -1.50149   0.23358     -1.50149   0.23358
 B12        1.99014   0.44003      1.99014   0.44003
 B13        1.99014   0.44003      1.99014   0.44003
 ZO1        3.17107   0.30798      3.17107   0.30798
 ZH2       -0.74355   0.22035     -0.74355   0.22035
 ZH3       -0.74355   0.22035     -0.74355   0.22035
 O1         3.06389   0.30817      3.06389   0.30817
 H2        -1.50149   0.23358     -1.50149   0.23358
 H3        -1.50149   0.23358     -1.50149   0.23358
 B12        1.99014   0.44003      1.99014   0.44003
 B13        1.99014   0.44003      1.99014   0.44003
 ZO1        3.17107   0.30798      3.17107   0.30798
 ZH2       -0.74355   0.22035     -0.74355   0.22035
 ZH3       -0.74355   0.22035     -0.74355   0.22035
 O1         3.06389   0.30817      3.06389   0.30817
 H2        -1.50149   0.23358     -1.50149   0.23358
 H3        -1.50149   0.23358     -1.50149   0.23358
 B12        1.99014   0.44003      1.99014   0.44003
 B13        1.99014   0.44003      1.99014   0.44003
 ZO1        3.17107   0.30798      3.17107   0.30798
 ZH2       -0.74355   0.22035     -0.74355   0.22035
 ZH3       -0.74355   0.22035     -0.74355   0.22035
 O1         3.06389   0.30817      3.06389   0.30817
 H2        -1.50149   0.23358     -1.50149   0.23358
 H3        -1.50149   0.23358     -1.50149   0.23358
 B12        1.99014   0.44003      1.99014   0.44003
 B13        1.99014   0.44003      1.99014   0.44003
 ZO1        3.17107   0.30798      3.17107   0.30798
 ZH2       -0.74355   0.22035     -0.74355   0.22035
 ZH3       -0.74355   0.22035     -0.74355   0.22035
 O1         3.06389   0.30817      3.06389   0.30817
 H2        -1.50149   0.23358     -1.50149   0.23358
 H3        -1.50149   0.23358     -1.50149   0.23358
 B12        1.99014   0.44003      1.99014   0.44003
 B13        1.99014   0.44003      1.99014   0.44003
 ZO1        3.17107   0.30798      3.17107   0.30798
 ZH2       -0.74355   0.22035     -0.74355   0.22035
 ZH3       -0.74355   0.22035     -0.74355   0.22035
 O1         3.06389   0.30817      3.06389   0.30817
 H2        -1.50149   0.23358     -1.50149   0.23358
 H3        -1.50149   0.23358     -1.50149   0.23358
 B12        1.99014   0.44003      1.99014   0.44003
 B13        1.99014   0.44003      1.99014   0.44003
 ZO1        3.17107   0.30798      3.17107   0.30798
 ZH2       -0.74355   0.22035     -0.74355   0.22035
 ZH3       -0.74355   0.22035     -0.74355   0.22035
 O1         3.06389   0.30817      3.06389   0.30817
 H2        -1.50149   0.23358     -1.50149   0.23358
 H3        -1.50149   0.23358     -1.50149   0.23358
 B12        1.99014   0.44003      1.99014   0.44003
 B13        1.99014   0.44003      1.99014   0.44003
 ZO1        3.17107   0.30798      3.17107   0.30798
 ZH2       -0.74355   0.22035     -0.74355   0.22035
 ZH3       -0.74355   0.22035     -0.74355   0.22035
 O1         3.06389   0.30817      3.06389   0.30817
 H2        -1.50149   0.23358     -1.50149   0.23358
 H3        -1.50149   0.23358     -1.50149   0.23358
 B12        1.99014   0.44003      1.99014   0.44003
 B13        1.99014   0.44003      1.99014   0.44003
 ZO1        3.17107   0.30798      3.17107   0.30798
 ZH2       -0.74355   0.22035     -0.74355   0.22035
 ZH3       -0.74355   0.22035     -0.74355   0.22035
 O1         3.06389   0.30817      3.06389   0.30817
 H2        -1.50149   0.23358     -1.50149   0.23358
 H3        -1.50149   0.23358     -1.50149   0.23358
 B12        1.99014   0.44003      1.99014   0.44003
 B13        1.99014   0.44003      1.99014   0.44003
 ZO1        3.17107   0.30798      3.17107   0.30798
 ZH2       -0.74355   0.22035     -0.74355   0.22035
 ZH3       -0.74355   0.22035     -0.74355   0.22035
 O1         3.06389   0.30817      3.06389   0.30817
 H2        -1.50149   0.23358     -1.50149   0.23358
 H3        -1.50149   0.23358     -1.50149   0.23358
 B12        1.99014   0.44003      1.99014   0.44003
 B13        1.99014   0.44003      1.99014   0.44003
 ZO1        3.17107   0.30798      3.17107   0.30798
 ZH2       -0.74355   0.22035     -0.74355   0.22035
 ZH3       -0.74355   0.22035     -0.74355   0.22035
 O1         3.06389   0.30817      3.06389   0.30817
 H2        -1.50149   0.23358     -1.50149   0.23358
 H3        -1.50149   0.23358     -1.50149   0.23358
 B12        1.99014   0.44003      1.99014   0.44003
 B13        1.99014   0.44003      1.99014   0.44003
 ZO1        3.17107   0.30798      3.17107   0.30798
 ZH2       -0.74355   0.22035     -0.74355   0.22035
 ZH3       -0.74355   0.22035     -0.74355   0.22035
 O1         3.06389   0.30817      3.06389   0.30817
 H2        -1.50149   0.23358     -1.50149   0.23358
 H3        -1.50149   0.23358     -1.50149   0.23358
 B12        1.99014   0.44003      1.99014   0.44003
 B13        1.99014   0.44003      1.99014   0.44003
 ZO1        3.17107   0.30798      3.17107   0.30798
 ZH2       -0.74355   0.22035     -0.74355   0.22035
 ZH3       -0.74355   0.22035     -0.74355   0.22035
 O1         3.06389   0.30817      3.06389   0.30817
 H2        -1.50149   0.23358     -1.50149   0.23358
 H3        -1.50149   0.23358     -1.50149   0.23358
 B12        1.99014   0.44003      1.99014   0.44003
 B13        1.99014   0.44003      1.99014   0.44003
 ZO1        3.17107   0.30798      3.17107   0.30798
 ZH2       -0.74355   0.22035     -0.74355   0.22035
 ZH3       -0.74355   0.22035     -0.74355   0.22035
 O1         3.06389   0.30817      3.06389   0.30817
 H2        -1.50149   0.23358     -1.50149   0.23358
 H3        -1.50149   0.23358     -1.50149   0.23358
 B12        1.99014   0.44003      1.99014   0.44003
 B13        1.99014   0.44003      1.99014   0.44003
 ZO1        3.17107   0.30798      3.17107   0.30798
 ZH2       -0.74355   0.22035     -0.74355   0.22035
 ZH3       -0.74355   0.22035     -0.74355   0.22035
 O1         3.06389   0.30817      3.06389   0.30817
 H2        -1.50149   0.23358     -1.50149   0.23358
 H3        -1.50149   0.23358     -1.50149   0.23358
 B12        1.99014   0.44003      1.99014   0.44003
 B13        1.99014   0.44003      1.99014   0.44003
 ZO1        3.17107   0.30798      3.17107   0.30798
 ZH2       -0.74355   0.22035     -0.74355   0.22035
 ZH3       -0.74355   0.22035     -0.74355   0.22035
 O1         3.06389   0.30817      3.06389   0.30817
 H2        -1.50149   0.23358     -1.50149   0.23358
 H3        -1.50149   0.23358     -1.50149   0.23358
 B12        1.99014   0.44003      1.99014   0.44003
 B13        1.99014   0.44003      1.99014   0.44003
 ZO1        3.17107   0.30798      3.17107   0.30798
 ZH2       -0.74355   0.22035     -0.74355   0.22035
 ZH3       -0.74355   0.22035     -0.74355   0.22035
 O1         3.06389   0.30817      3.06389   0.30817
 H2        -1.50149   0.23358     -1.50149   0.23358
 H3        -1.50149   0.23358     -1.50149   0.23358
 B12        1.99014   0.44003      1.99014   0.44003
 B13        1.99014   0.44003      1.99014   0.44003
 ZO1        3.17107   0.30798      3.17107   0.30798
 ZH2       -0.74355   0.22035     -0.74355   0.22035
 ZH3       -0.74355   0.22035     -0.74355   0.22035
 O1         3.06389   0.30817      3.06389   0.30817
 H2        -1.50149   0.23358     -1.50149   0.23358
 H3        -1.50149   0.23358     -1.50149   0.23358
 B12        1.99014   0.44003      1.99014   0.44003
 B13        1.99014   0.44003      1.99014   0.44003
 ZO1        3.17107   0.30798      3.17107   0.30798
 ZH2       -0.74355   0.22035     -0.74355   0.22035
 ZH3       -0.74355   0.22035     -0.74355   0.22035
 O1         3.06389   0.30817      3.06389   0.30817
 H2        -1.50149   0.23358     -1.50149   0.23358
 H3        -1.50149   0.23358     -1.50149   0.23358
 B12        1.99014   0.44003      1.99014   0.44003
 B13        1.99014   0.44003      1.99014   0.44003
 ZO1        3.17107   0.30798      3.17107   0.30798
 ZH2       -0.74355   0.22035     -0.74355   0.22035
 ZH3       -0.74355   0.22035     -0.74355   0.22035
 O1         3.06389   0.30817      3.06389   0.30817
 H2        -1.50149   0.23358     -1.50149   0.23358
 H3        -1.50149   0.23358     -1.50149   0.23358
 B12        1.99014   0.44003      1.99014   0.44003
 B13        1.99014   0.44003      1.99014   0.44003
 ZO1        3.17107   0.30798      3.17107   0.30798
 ZH2       -0.74355   0.22035     -0.74355   0.22035
 ZH3       -0.74355   0.22035     -0.74355   0.22035
 O1         3.06389   0.30817      3.06389   0.30817
 H2        -1.50149   0.23358     -1.50149   0.23358
 H3        -1.50149   0.23358     -1.50149   0.23358
 B12        1.99014   0.44003      1.99014   0.44003
 B13        1.99014   0.44003      1.99014   0.44003
 ZO1        3.17107   0.30798      3.17107   0.30798
 ZH2       -0.74355   0.22035     -0.74355   0.22035
 ZH3       -0.74355   0.22035     -0.74355   0.22035
 O1         3.06389   0.30817      3.06389   0.30817
 H2        -1.50149   0.23358     -1.50149   0.23358
 H3        -1.50149   0.23358     -1.50149   0.23358
 B12        1.99014   0.44003      1.99014   0.44003
 B13        1.99014   0.44003      1.99014   0.44003
 ZO1        3.17107   0.30798      3.17107   0.30798
 ZH2       -0.74355   0.22035     -0.74355   0.22035
 ZH3       -0.74355   0.22035     -0.74355   0.22035
 O1         3.06389   0.30817      3.06389   0.30817
 H2        -1.50149   0.23358     -1.50149   0.23358
 H3        -1.50149   0.23358     -1.50149   0.23358
 B12        1.99014   0.44003      1.99014   0.44003
 B13        1.99014   0.44003      1.99014   0.44003
 ZO1        3.17107   0.30798      3.17107   0.30798
 ZH2       -0.74355   0.22035     -0.74355   0.22035
 ZH3       -0.74355   0.22035     -0.74355   0.22035
 O1         3.06389   0.30817      3.06389   0.30817
 H2        -1.50149   0.23358     -1.50149   0.23358
 H3        -1.50149   0.23358     -1.50149   0.23358
 B12        1.99014   0.44003      1.99014   0.44003
 B13        1.99014   0.44003      1.99014   0.44003
 ZO1        3.17107   0.30798      3.17107   0.30798
 ZH2       -0.74355   0.22035     -0.74355   0.22035
 ZH3       -0.74355   0.22035     -0.74355   0.22035
 O1         3.06389   0.30817      3.06389   0.30817
 H2        -1.50149   0.23358     -1.50149   0.23358
 H3        -1.50149   0.23358     -1.50149   0.23358
 B12        1.99014   0.44003      1.99014   0.44003
 B13        1.99014   0.44003      1.99014   0.44003
 ZO1        3.17107   0.30798      3.17107   0.30798
 ZH2       -0.74355   0.22035     -0.74355   0.22035
 ZH3       -0.74355   0.22035     -0.74355   0.22035
 O1         3.06389   0.30817      3.06389   0.30817
 H2        -1.50149   0.23358     -1.50149   0.23358
 H3        -1.50149   0.23358     -1.50149   0.23358
 B12        1.99014   0.44003      1.99014   0.44003
 B13        1.99014   0.44003      1.99014   0.44003

   SCREENING FOR POLARIZATION WITH EXPONENTIAL FORMULA  OFF

   SCREENING FOR POLARIZATION WITH TANG-TOENNIS FORMULA  OFF

                  DIPOLE MOMENTS AND THE SECOND MOMENT TENSOR

                  X        Y        Z           XX/XY    YY/XZ    ZZ/YZ
 O1            0.38566  0.09540  0.17848     -3.97113 -4.39157 -3.86530
                                             -0.07630 -0.17897  0.33525
 H2            0.04845 -0.01466 -0.03179     -0.26664 -0.28399 -0.28113
                                             -0.00160 -0.00399  0.00172
 H3           -0.00123  0.02634  0.05365     -0.27992 -0.28128 -0.27057
                                              0.00223  0.00435  0.00708
 B12          -0.16177  0.03231  0.07231     -0.12212 -0.15281 -0.14009
                                             -0.00477 -0.01110  0.00788
 B13          -0.02690 -0.07898 -0.15962     -0.14302 -0.14854 -0.12346
                                              0.00127  0.00203  0.01632
 O1            0.12659 -0.41092 -0.06929     -3.84230 -4.09772 -4.28798
                                              0.00504  0.39128  0.15682
 H2            0.05263 -0.01599  0.02339     -0.27217 -0.27669 -0.28291
                                             -0.00762  0.00434 -0.00143
 H3           -0.03713 -0.03433 -0.03187     -0.28004 -0.27147 -0.28026
                                              0.00436  0.00407  0.00688
 B12          -0.15280  0.07563 -0.05806     -0.12517 -0.14060 -0.14926
                                             -0.01054  0.01363 -0.00037
 B13           0.09088  0.12540  0.09196     -0.13756 -0.13238 -0.14508
                                              0.00832  0.01320  0.01271
 O1           -0.36873 -0.21291  0.09161     -4.16617 -4.43707 -3.62475
                                              0.20994  0.11219 -0.00150
 H2           -0.03395 -0.01580 -0.04659     -0.27303 -0.28157 -0.27716
                                              0.00615  0.00650  0.00311
 H3           -0.01120 -0.01028  0.05781     -0.27884 -0.28239 -0.27054
                                              0.00376 -0.00611 -0.00441
 B12           0.12108  0.05957  0.11930     -0.13511 -0.15072 -0.12919
                                              0.01113  0.01301  0.00539
 B13           0.05931  0.04458 -0.16412     -0.14426 -0.15201 -0.11876
                                              0.00738 -0.00686 -0.00646
 O1           -0.32004  0.19199  0.22449     -3.99422 -4.46014 -3.77363
                                             -0.17335  0.26032  0.08410
 H2           -0.04961  0.01348 -0.03051     -0.26839 -0.28229 -0.28108
                                             -0.00617  0.00323 -0.00045
 H3            0.01041  0.01003  0.05800     -0.28170 -0.28275 -0.26732
                                             -0.00180 -0.00191  0.00517
 B12           0.15975 -0.05164  0.06522     -0.12404 -0.15202 -0.13896
                                             -0.01100  0.01135 -0.00043
 B13          -0.00318 -0.04229 -0.17505     -0.14500 -0.15274 -0.11728
                                             -0.00412  0.00324  0.00842
 O1            0.02314  0.13327  0.41399     -4.21443 -3.96697 -4.04658
                                              0.43675 -0.13268 -0.05849
 H2            0.03330  0.04850  0.01058     -0.28037 -0.27375 -0.27765
                                              0.00691  0.00324  0.00622
 H3           -0.03047 -0.03218  0.04012     -0.28139 -0.28120 -0.26918
                                              0.00332 -0.00567 -0.00399
 B12          -0.09221 -0.14211 -0.06118     -0.14391 -0.12980 -0.14131
                                              0.01812  0.00263  0.00736
 B13           0.08089  0.07691 -0.14136     -0.14552 -0.14153 -0.12797
                                              0.01247 -0.01140 -0.00871
 O1            0.18797 -0.32318 -0.22340     -3.70830 -4.10335 -4.41633
                                              0.22086 -0.01279  0.23001
 H2            0.05915  0.00383 -0.00777     -0.26773 -0.28152 -0.28251
                                             -0.00323 -0.00481  0.00249
 H3           -0.03613 -0.04341 -0.01959     -0.28014 -0.27094 -0.28068
                                              0.00436  0.00179  0.00747
 B12          -0.17529  0.01493  0.03860     -0.11645 -0.14660 -0.15197
                                              0.00022 -0.00668  0.00588
 B13           0.08333  0.14317  0.07069     -0.13599 -0.12995 -0.14909
                                              0.01217  0.00372  0.01372
 O1            0.30087  0.08366  0.30358     -4.17985 -4.05163 -3.99652
                                              0.32919  0.01535 -0.33209
 H2           -0.00242 -0.03303  0.04976     -0.28191 -0.28101 -0.26885
                                              0.00001  0.00419 -0.00610
 H3            0.03927  0.04327 -0.01259     -0.27322 -0.27659 -0.28196
                                              0.00918  0.00208  0.00012
 B12          -0.01700  0.08310 -0.15889     -0.14813 -0.14236 -0.12453
                                              0.00488  0.00446 -0.01584
 B13          -0.13019 -0.12403  0.01037     -0.13444 -0.13540 -0.14518
                                              0.01930  0.00113 -0.00605
 O1           -0.37021 -0.21342  0.08415     -4.15762 -4.43899 -3.63138
                                              0.19887  0.13130 -0.05371
 H2           -0.01056 -0.01353  0.05726     -0.27890 -0.28193 -0.27093
                                              0.00401 -0.00583 -0.00506
 H3           -0.03478 -0.01260 -0.04695     -0.27269 -0.28206 -0.27701
                                              0.00568  0.00683  0.00267
 B12           0.05768  0.05346 -0.16203     -0.14425 -0.15132 -0.11945
                                              0.00757 -0.00616 -0.00840
 B13           0.12344  0.05094  0.12087     -0.13447 -0.15153 -0.12902
                                              0.01020  0.01377  0.00377
 O1           -0.39602  0.13494  0.12103     -4.07351 -4.50847 -3.64600
                                             -0.13373  0.14684  0.04813
 H2           -0.04001  0.00787 -0.04371     -0.26987 -0.28372 -0.27818
                                             -0.00395  0.00648 -0.00132
 H3           -0.00849  0.00865  0.05853     -0.27851 -0.28364 -0.26961
                                             -0.00258 -0.00622  0.00349
 B12           0.13964 -0.03195  0.10918     -0.12913 -0.15458 -0.13131
                                             -0.00706  0.01394 -0.00171
 B13           0.05410 -0.03406 -0.16839     -0.14275 -0.15446 -0.11781
                                             -0.00490 -0.00607  0.00587
 O1            0.18671 -0.00667 -0.39342     -3.68883 -4.55327 -3.98589
                                             -0.03621  0.18285 -0.00904
 H2            0.05971 -0.00246 -0.00114     -0.26748 -0.28477 -0.27951
                                             -0.00070 -0.00538  0.00021
 H3           -0.03685  0.00164 -0.04704     -0.27997 -0.28479 -0.26700
                                             -0.00021  0.00481 -0.00025
 B12          -0.17674  0.00720  0.03394     -0.11572 -0.15652 -0.14279
                                             -0.00168 -0.00347  0.00011
 B13           0.08540 -0.00394  0.15853     -0.13539 -0.15655 -0.12309
                                             -0.00091  0.01258 -0.00061
 O1            0.06432 -0.37571 -0.21068     -3.75109 -4.19131 -4.28559
                                             -0.12313  0.31780  0.17371
 H2            0.05271 -0.02680  0.00876     -0.27327 -0.27506 -0.28343
                                             -0.00863  0.00013  0.00202
 H3           -0.04483 -0.01921 -0.03456     -0.27761 -0.27704 -0.27711
                                              0.00423  0.00629  0.00710
 B12          -0.14813  0.10221 -0.00726     -0.12506 -0.13888 -0.15109
                                             -0.01502  0.00589  0.00401
 B13           0.11666  0.08160  0.11033     -0.13190 -0.14199 -0.14113
                                              0.00524  0.01558  0.01201
 O1           -0.21586  0.24174  0.29095     -4.17230 -3.78955 -4.26613
                                              0.27099 -0.29896 -0.03430
 H2            0.01492  0.05781  0.00296     -0.28311 -0.26692 -0.28174
                                              0.00056 -0.00152  0.00498
 H3           -0.04136 -0.02820  0.03267     -0.27469 -0.28132 -0.27575
                                              0.00228 -0.00941 -0.00120
 B12          -0.02359 -0.17588 -0.03085     -0.14873 -0.11714 -0.14915
                                              0.00680 -0.00575  0.00541
 B13           0.12919  0.05761 -0.11149     -0.13548 -0.13982 -0.13972
                                              0.00951 -0.01818 -0.00432
 O1           -0.13901  0.39333  0.12511     -4.33455 -4.14423 -3.74921
                                             -0.19359  0.31784  0.00939
 H2           -0.03117  0.03132 -0.04026     -0.27946 -0.27310 -0.27920
                                             -0.00743  0.00441 -0.00451
 H3            0.01414  0.01685  0.05558     -0.28383 -0.27704 -0.27089
                                             -0.00056  0.00176  0.00792
 B12           0.09550 -0.11586  0.09949     -0.14500 -0.13535 -0.13467
                                             -0.01351  0.01273 -0.00824
 B13          -0.02750 -0.07657 -0.16069     -0.15187 -0.14156 -0.12159
                                             -0.00269  0.00856  0.01133
 O1           -0.28439  0.11471  0.30927     -3.88139 -4.21411 -4.13249
                                              0.29626  0.06615  0.32483
 H2            0.02004  0.03738  0.04212     -0.28183 -0.27805 -0.27188
                                              0.00084 -0.00036  0.00905
 H3           -0.05487 -0.02333 -0.00425     -0.26707 -0.28288 -0.28182
                                              0.00385 -0.00382  0.00071
[...]
    8  N  1  Y   -0.008346   0.241729  -0.136922  -0.526598  -0.181046
    9  N  1  Z   -0.297117  -0.190296  -0.891819  -0.057790   1.963077
   10  N  1 XX    0.008911   0.068728   0.042937  -0.127944  -0.254259
   11  N  1 YY    0.006572   0.101135  -0.059554   0.227182   0.023794
   12  N  1 ZZ   -0.015483  -0.169863   0.016618  -0.099239   0.230465
   13  N  1 XY   -0.015469  -0.168791  -0.056189   0.142931  -0.239841
   14  N  1 XZ   -0.012441   0.052799  -0.250886  -0.076726  -0.000684
   15  N  1 YZ   -0.002049  -0.091836  -0.073237  -0.068630  -0.412874
   16  N  1  S    0.001905   0.186037  -0.246162   2.310981  -0.153151
   17  N  1  X    0.006829   0.138236  -0.026669   0.041238   0.284979
   18  N  1  Y   -0.005968  -0.038415   0.026973   0.100839  -0.035815
   19  N  1  Z   -0.020241   0.025831   0.162783  -0.010479   0.375880
   20  N  1 XX   -0.072877  -0.632684  -0.209948   0.567323   0.501780
   21  N  1 YY   -0.032710  -0.427034   0.197730  -0.968369  -0.072597
   22  N  1 ZZ    0.105587   1.059718   0.012218   0.401046  -0.429183
   23  N  1 XY    0.077667   0.819882   0.329596  -0.608634   0.619956
   24  N  1 XZ    0.074938  -0.296100   1.398420   0.373504   0.087222
   25  N  1 YZ   -0.005115   0.499364   0.183662   0.273474   0.963120
   26  H  2  S   -0.111403  -0.153316  -0.250417  -0.268540   1.059289
   27  H  2  S   -0.667055  -2.212841  -3.014430  -1.821860   3.208899
   28  H  2  X    0.627411  -0.111880   0.467378   0.314458  -0.153425
   29  H  2  Y   -0.138328   0.653799   0.549793   0.648368  -0.298015
   30  H  2  Z   -0.225860   0.269343   0.067855  -0.009015   0.269015
   31  H  2  S   -0.001810   0.050023   0.151788  -0.170519   0.146268
   32  H  2  X   -0.655301  -0.919180  -0.009190   0.129076   0.436946
   33  H  2  Y    0.280655   0.469955  -0.032827   0.462516   0.158419
   34  H  2  Z   -0.020852  -0.646269  -1.432889  -0.578303   0.866202
   35  H  3  S    0.056671   0.317680  -0.008711  -0.375513  -0.691640
   36  H  3  S    0.411537   3.691829   0.081949  -2.228385  -1.993345
   37  H  3  X   -0.045597   0.071902   0.045245   0.110643   0.256038
   38  H  3  Y    0.056871  -0.861590  -0.161749   0.740186   0.089456
   39  H  3  Z    0.681919   0.110128  -0.473520  -0.193682  -0.578846
   40  H  3  S   -0.008796  -0.143273   0.032499  -0.164539  -0.090695
   41  H  3  X   -0.130417  -1.635721   0.030236   0.772383   0.522777
   42  H  3  Y   -0.124948   0.198809  -0.232900   0.334701  -0.283507
   43  H  3  Z   -0.681630  -0.166533  -0.799522  -0.128639   0.150933
   44  H  4  S    0.056537  -0.152114   0.277710  -0.108149  -0.264558
   45  H  4  S    0.250240  -1.934611   3.480274  -0.777867  -0.881587
   46  H  4  X   -0.560115   0.004313  -0.553393   0.209288  -0.590880
   47  H  4  Y    0.079629   0.419750  -0.659012   0.438300   0.261460
   48  H  4  Z   -0.417744  -0.413619   0.310790  -0.160742  -0.451525
   49  H  4  S    0.010335   0.046459  -0.124021  -0.194726  -0.015788
   50  H  4  X    0.460018  -1.038703   0.304703   0.138575  -0.110075
   51  H  4  Y   -0.128685   0.603991  -0.754189   0.470965   0.006852
   52  H  4  Z    0.258915   0.068416  -1.358461  -0.006660   0.258548

                     41         42         43         44         45
                    2.3348     2.4178     2.4589     2.4803     2.7465
                     A          A          A          A          A   
    1  N  1  S   -0.014488  -1.135170   0.290397   0.216027  -0.100642
    2  N  1  S   -0.033441  -2.281793   0.579349   0.421441  -0.081463
    3  N  1  S    0.055386   7.108276  -1.836798  -1.419327   2.807810
    4  N  1  X    0.167319  -0.314113  -0.760738  -0.379322   0.098437
    5  N  1  Y   -0.095963  -0.058583   0.363735  -0.019986   0.326786
    6  N  1  Z   -0.131981  -0.025424   0.333935  -0.863026  -0.091631
    7  N  1  X    1.802079   1.175545   1.889734   0.802161   0.402342
    8  N  1  Y   -0.758447   1.389995  -1.325727  -0.200873   1.000815
    9  N  1  Z   -1.200798  -0.045856  -0.934793   2.253583  -0.093794
   10  N  1 XX   -0.273043   0.100235   0.053393   0.089830  -0.318323
   11  N  1 YY    0.281590  -0.154319   0.117640   0.037681   0.741129
   12  N  1 ZZ   -0.008547   0.054084  -0.171033  -0.127511  -0.422806
   13  N  1 XY   -0.333527  -0.124453  -0.085441  -0.113000   0.480418
   14  N  1 XZ    0.052218   0.016947   0.161918  -0.174669  -0.098574
   15  N  1 YZ    0.285630  -0.003571  -0.044544  -0.070287  -0.268330
   16  N  1  S   -0.013923   2.712239  -0.678821  -0.571335   2.087019
   17  N  1  X    0.354779   0.185427   0.355096   0.157219   0.044105
   18  N  1  Y   -0.153787   0.180979  -0.216211  -0.027932   0.150284
   19  N  1  Z   -0.224880   0.005893  -0.169370   0.408910  -0.005900
   20  N  1 XX    0.560901   0.043345   0.377685   0.178285   0.109620
   21  N  1 YY   -0.645509   0.114137  -0.434340   0.024543  -0.250976
   22  N  1 ZZ    0.084609  -0.157483   0.056655  -0.202827   0.141356
   23  N  1 XY    0.783007   0.223658   0.391653   0.178822  -0.150779
   24  N  1 XZ   -0.247499   0.002587  -0.038041   0.006061  -0.001178
   25  N  1 YZ   -0.607499   0.039928  -0.232620   0.528087   0.117087
   26  H  2  S   -0.160065  -0.544064   0.154077   0.702697  -0.510164
   27  H  2  S   -0.593932  -1.387383   0.164858   4.052220  -1.040523
   28  H  2  X   -0.674086  -0.212885  -0.215925  -0.227212  -0.400377
   29  H  2  Y    0.310294  -0.257946   0.228148   0.199622  -0.271879
   30  H  2  Z    0.243970  -0.058722   0.143747  -0.829197  -0.513888
   31  H  2  S   -0.008931  -0.168674   0.043788   0.478378  -0.129435
   32  H  2  X   -0.061905  -0.149135   0.072996   0.548982   0.035508
   33  H  2  Y   -0.080785   0.276816  -0.082975  -0.381730   0.154803
   34  H  2  Z   -0.192121  -0.604225   0.067239   1.713539  -0.020554
   35  H  3  S   -0.755357  -0.839480  -0.311868  -0.125429  -0.549378
   36  H  3  S   -2.247932  -3.002114  -2.475494  -1.193945  -1.306063
   37  H  3  X    0.192298  -0.331097  -0.717708  -0.414268   0.484331
   38  H  3  Y    0.291717  -0.299167   0.182959   0.020661  -0.443224
   39  H  3  Z    0.489533   0.004344   0.085073  -0.279353   0.159039
   40  H  3  S   -0.099290  -0.360158  -0.301904  -0.160509  -0.134637
   41  H  3  X    0.619683   1.403903   1.136345   0.574311   0.172348
   42  H  3  Y   -0.346034   0.069835  -0.114713  -0.045149   0.144054
   43  H  3  Z    0.096399   0.106264   0.068698   0.114862   0.003550
   44  H  4  S    0.948107  -0.637095   0.741180  -0.157073  -0.543062
   45  H  4  S    2.831061  -1.584354   3.811933  -1.615245  -1.301267
   46  H  4  X   -0.199513  -0.258260  -0.425440   0.034660  -0.432945
   47  H  4  Y   -0.435898  -0.181322   0.468308  -0.141230  -0.049059
   48  H  4  Z   -0.224236   0.088102   0.428838  -0.530675   0.482792
   49  H  4  S    0.108491  -0.178636   0.435792  -0.175822  -0.152020
   50  H  4  X    0.494731  -0.261070   0.780464  -0.293791   0.007072
   51  H  4  Y   -0.138054   0.494503  -0.986943   0.385911   0.218575
   52  H  4  Z   -0.648017   0.470402  -1.208437   0.579925   0.048533

                     46         47         48         49         50
                    2.9203     2.9329     3.1193     3.5719     3.5930
                     A          A          A          A          A   
    1  N  1  S    0.023993  -0.036432  -0.021855   0.014407  -0.020359
    2  N  1  S    0.068117  -0.086338   0.209987   0.027399  -0.047063
    3  N  1  S    0.224187  -0.072018   4.884881  -0.081791  -0.228066
    4  N  1  X   -0.008205   0.165696   0.169978   0.527466   0.275115
    5  N  1  Y    0.083207  -0.081527   0.511284  -0.231876  -0.016870
    6  N  1  Z    0.145025   0.072004  -0.111622  -0.258527   0.603581
    7  N  1  X    0.260249  -0.971132   0.403666   2.887321   1.596686
    8  N  1  Y   -0.158273   0.224571   1.602260  -1.260609  -0.017281
    9  N  1  Z   -0.956851  -0.258877  -0.089141  -1.250666   3.079800
   10  N  1 XX    0.154370   0.395095   0.355688   1.125323   0.799487
   11  N  1 YY   -0.291398   0.425639  -0.627133  -0.695600   0.165357
   12  N  1 ZZ    0.137029  -0.820735   0.271444  -0.429724  -0.964844
   13  N  1 XY   -0.135457  -0.815467  -0.506494   0.650016   0.150875
   14  N  1 XZ   -1.148496   0.125208   0.216515   0.436436  -0.502191
   15  N  1 YZ   -0.348516  -0.451578   0.273223  -0.695705   1.029876
   16  N  1  S    0.117299  -0.042151   2.296095  -0.032035  -0.094904
   17  N  1  X    0.020397  -0.064896   0.166106   0.541113   0.312312
   18  N  1  Y    0.036085  -0.015834   0.523303  -0.225242  -0.014206
   19  N  1  Z   -0.039748  -0.012783  -0.071783  -0.216819   0.575007
   20  N  1 XX   -0.034181  -0.319236  -0.137070   0.295017   0.206802
   21  N  1 YY    0.022420  -0.050333   0.249899  -0.237000   0.014900
   22  N  1 ZZ    0.011762   0.369568  -0.112828  -0.058017  -0.221702
   23  N  1 XY    0.102775   0.092436   0.148144   0.264012   0.118630
   24  N  1 XZ    0.412107  -0.033179  -0.068603   0.013646  -0.042427
   25  N  1 YZ   -0.095987   0.099415  -0.043241  -0.171677   0.352903
   26  H  2  S   -0.260487  -0.103273  -1.153606  -0.043296   2.312206
   27  H  2  S   -1.296145  -0.872609  -1.420727  -0.054531   4.007016
   28  H  2  X   -0.461739   0.419119  -0.152629  -0.182003   0.314322
   29  H  2  Y   -0.085784  -0.450494   0.354282   0.116961  -0.409861
   30  H  2  Z    0.154558  -0.087502  -0.876959   0.030760   1.075296
   31  H  2  S    0.004167  -0.008840  -0.143413   0.018433   0.286762
   32  H  2  X    0.112886  -0.255467  -0.217096  -0.128517   0.295911
   33  H  2  Y    0.181100   0.324124  -0.111199   0.043821  -0.519554
   34  H  2  Z   -0.473727  -0.181289  -0.230890   0.033442   1.187383
   35  H  3  S   -0.113686   0.290135  -1.175352  -1.841074  -1.155630
   36  H  3  S   -0.328417   1.533237  -1.379938  -3.222200  -2.103691
   37  H  3  X    0.010102   0.085027   0.981536   0.959292   0.587799
   38  H  3  Y    0.112370   0.326474   0.153971   0.118429   0.007251
   39  H  3  Z    0.649395   0.033286  -0.004678   0.172874  -0.101400
   40  H  3  S   -0.000515   0.010161  -0.149923  -0.228086  -0.163661
   41  H  3  X    0.128267  -0.537682   0.231179   1.062453   0.716002
   42  H  3  Y   -0.068903  -0.197475  -0.202982   0.190638   0.107390
   43  H  3  Z   -0.311857  -0.053757   0.094268   0.127387  -0.078252
   44  H  4  S    0.170417  -0.058731  -1.266746   1.936555  -0.958058
   45  H  4  S    1.380077  -0.569970  -1.855584   3.335153  -1.706891
   46  H  4  X    0.267848   0.470875  -0.338600   0.296930  -0.349682
   47  H  4  Y    0.324366  -0.267966   0.662532  -0.684273   0.389541
   48  H  4  Z    0.150079   0.370600   0.606346  -0.716883   0.192366
   49  H  4  S   -0.020684   0.000431  -0.149969   0.218806  -0.102188
   50  H  4  X    0.005073  -0.276501  -0.269516   0.338573  -0.273451
   51  H  4  Y   -0.501102   0.259709   0.121035  -0.807326   0.436390
   52  H  4  Z   -0.339158  -0.073945   0.325768  -0.711459   0.293352
 ...... END OF RHF CALCULATION ......
 CPU     0: STEP CPU TIME=     1.00 TOTAL CPU TIME=        1.6 (    0.0 MIN)
 TOTAL WALL CLOCK TIME=        2.1 SECONDS, CPU UTILIZATION IS  78.37%

     ----------------------------------------------------------------
     PROPERTY VALUES FOR THE RHF   SELF-CONSISTENT FIELD WAVEFUNCTION
     ----------------------------------------------------------------

          -----------------
          ENERGY COMPONENTS
          -----------------

         WAVEFUNCTION NORMALIZATION =       1.0000000000

                ONE ELECTRON ENERGY =     -99.8515224493
                TWO ELECTRON ENERGY =      31.5558010511
           NUCLEAR REPULSION ENERGY =      12.1451530544
          EFFECTIVE FRAGMENT ENERGY =      -0.5383583049
                                      ------------------
                       TOTAL ENERGY =     -56.6889266486

 ELECTRON-ELECTRON POTENTIAL ENERGY =      31.5558010511
  NUCLEUS-ELECTRON POTENTIAL ENERGY =    -156.0734284432
   NUCLEUS-NUCLEUS POTENTIAL ENERGY =      12.1451530544
 ELECTRON-FRAGMENT MULTIPOLE ENERGY =       0.0648811941
 ELECTRON-FRAGMENT REMAINDER ENERGY =      -0.0042286635
        STATIC INTERFRAGMENT ENERGY =      -0.3858410885
            FRAGMENT-NUCLEAR ENERGY =      -0.0726117088
    TOTAL FRAGMENT INDUCTION ENERGY =      -0.0878265158
                                      ------------------
             TOTAL POTENTIAL ENERGY =    -112.8581011201
                                      ------------------
            SOLUTE POTENTIAL ENERGY =    -112.3724743377
              SOLUTE KINETIC ENERGY =      56.1691744716
                 VIRIAL RATIO (V/T) =       2.0006075467

          ---------------------------------------
          MULLIKEN AND LOWDIN POPULATION ANALYSES
          ---------------------------------------

     ATOMIC MULLIKEN POPULATION IN EACH MOLECULAR ORBITAL

                      1          2          3          4          5

                  2.000000   2.000000   2.000000   2.000000   2.000000

    1             1.997785   1.173934   1.025998   1.053638   1.817446
    2             0.000737   0.294559   0.454273   0.181640   0.060889
    3             0.000764   0.270562   0.512376   0.137187   0.069063
    4             0.000715   0.260945   0.007353   0.627535   0.052602

               ----- POPULATIONS IN EACH AO -----
                             MULLIKEN      LOWDIN
              1  N  1  S      2.00427     1.84776
              2  N  1  S      0.75577     0.51432
              3  N  1  S      0.56683     0.27587
              4  N  1  X      0.74067     0.65165
              5  N  1  Y      0.88544     0.80202
              6  N  1  Z      0.74188     0.65279
              7  N  1  X      0.33956     0.44452
              8  N  1  Y      0.59520     0.51798
              9  N  1  Z      0.32049     0.43908
             10  N  1 XX      0.00556     0.14119
             11  N  1 YY      0.00736     0.11774
             12  N  1 ZZ      0.00337     0.13850
             13  N  1 XY      0.00115     0.00414
             14  N  1 XZ      0.00972     0.00355
             15  N  1 YZ      0.00000     0.01416
             16  N  1  S      0.04872     0.05808
             17  N  1  X      0.00745     0.04219
             18  N  1  Y      0.05617     0.06199
             19  N  1  Z      0.00554     0.03934
             20  N  1 XX     -0.00764     0.04828
             21  N  1 YY     -0.00647     0.02876
             22  N  1 ZZ     -0.00138     0.04078
             23  N  1 XY     -0.00397     0.00519
             24  N  1 XZ     -0.00689     0.00946
             25  N  1 YZ      0.00000     0.01965
             26  H  2  S      0.76474     0.51226
             27  H  2  S      0.16188     0.12369
             28  H  2  X      0.01271     0.02848
             29  H  2  Y      0.01619     0.04164
             30  H  2  Z      0.03084     0.04936
             31  H  2  S      0.00180     0.01399
             32  H  2  X     -0.00185     0.07119
             33  H  2  Y      0.01418     0.10143
             34  H  2  Z     -0.00838     0.09464
             35  H  3  S      0.75684     0.51422
             36  H  3  S      0.16591     0.12799
             37  H  3  X      0.03443     0.05327
             38  H  3  Y      0.01355     0.03733
             39  H  3  Z      0.00982     0.02358
             40  H  3  S      0.00011     0.01408
             41  H  3  X     -0.00572     0.10133
             42  H  3  Y      0.01717     0.09732
             43  H  3  Z     -0.00216     0.06714
             44  H  4  S      0.74970     0.50213
             45  H  4  S      0.14802     0.12258
             46  H  4  X      0.01439     0.02885
             47  H  4  Y      0.02316     0.04762
             48  H  4  Z      0.02155     0.03664
             49  H  4  S      0.00076     0.01402
             50  H  4  X     -0.00424     0.07173
             51  H  4  Y      0.00406     0.10658
             52  H  4  Z     -0.00824     0.07791

          ----- MULLIKEN ATOMIC OVERLAP POPULATIONS -----
          (OFF-DIAGONAL ELEMENTS NEED TO BE MULTIPLIED BY 2)

             1           2           3           4

    1    5.9793189
    2    0.3675586   0.7580939
    3    0.3672917  -0.0660229   0.7527531
    4    0.3546307  -0.0675320  -0.0640693   0.7261205

          TOTAL MULLIKEN AND LOWDIN ATOMIC POPULATIONS
       ATOM         MULL.POP.    CHARGE          LOW.POP.     CHARGE
    1 N             7.068800   -0.068800         6.918994    0.081006
    2 H             0.992098    0.007902         1.036675   -0.036675
    3 H             0.989953    0.010047         1.036260   -0.036260
    4 H             0.949150    0.050850         1.008071   -0.008071

          MULLIKEN SPHERICAL HARMONIC POPULATIONS
       ATOM           S       P       D      F      G      H      I    TOTAL
    1 N             3.38    3.69    0.00   0.00   0.00   0.00   0.00    7.07
    2 H             0.93    0.06    0.00   0.00   0.00   0.00   0.00    0.99
    3 H             0.92    0.07    0.00   0.00   0.00   0.00   0.00    0.99
    4 H             0.90    0.05    0.00   0.00   0.00   0.00   0.00    0.95

          -------------------------------
          BOND ORDER AND VALENCE ANALYSIS     BOND ORDER THRESHOLD=0.050
          -------------------------------

                   BOND                       BOND                       BOND
  ATOM PAIR DIST  ORDER      ATOM PAIR DIST  ORDER      ATOM PAIR DIST  ORDER
    1   2  0.988  1.030        1   3  1.004  1.034        1   4  1.003  0.993

                       TOTAL       BONDED        FREE
      ATOM            VALENCE     VALENCE     VALENCE
    1 N                 3.058       3.058       0.000
    2 H                 1.003       1.003       0.000
    3 H                 1.007       1.007       0.000
    4 H                 0.968       0.968       0.000

          ----------------------------
          SOLUTE ELECTROSTATIC MOMENTS
          ----------------------------

 POINT   1           X           Y           Z (BOHR)    CHARGE
                 3.586297    2.453597    0.657808        0.00 (A.U.)
         DX          DY          DZ         /D/  (DEBYE)
     0.489992    1.975879   -0.320821    2.060853

          ----------------------------------------
          EFFECTIVE FRAGMENT ELECTROSTATIC MOMENTS
          ----------------------------------------

 FRAGMENT DIPOLES HAVE BEEN PUNCHED
 

          ----------------------------
          SYSTEM ELECTROSTATIC MOMENTS
          ----------------------------

 POINT   1           X           Y           Z (BOHR)    CHARGE
                 3.586297    2.453597    0.657808        0.00 (A.U.)
         DX          DY          DZ         /D/  (DEBYE)
    -9.184384    0.742779   -1.379836    9.317112
 ...... END OF PROPERTY EVALUATION ......
 CPU     0: STEP CPU TIME=     0.01 TOTAL CPU TIME=        1.6 (    0.0 MIN)
 TOTAL WALL CLOCK TIME=        2.1 SECONDS, CPU UTILIZATION IS  78.10%
                580000  WORDS OF DYNAMIC MEMORY USED
 EXECUTION OF GAMESS TERMINATED NORMALLY Tue Nov 26 18:27:10 2013
 DDI: 263624 bytes (0.3 MB / 0 MWords) used by master data server.

 ----------------------------------------
 CPU timing information for all processes
 ========================================
 0: 1.537 + 0.112 = 1.650
 1: 1.621 + 0.93 = 1.715
 ----------------------------------------
 ddikick.x: exited gracefully.
unset echo
----- accounting info -----
Files used on the master node sb.msg.chem.iastate.edu were:
-rw-r--r--  1 federico gordon   12254 2013-11-26 18:27 /scr/federico/amo_snap.F05
-rw-r--r--  1 federico gordon 1799600 2013-11-26 18:27 /scr/federico/amo_snap.F10
-rw-r--r--  1 federico gordon 4137000 2013-11-26 18:27 /scr/federico/amo_snap.F25
-rw-r--r--  1 federico gordon 4137000 2013-11-26 18:27 /scr/federico/amo_snap.F25.001
ls: No match.
ls: No match.
ls: No match.
Tue Nov 26 18:27:13 CST 2013
0.062u 0.077s 0:05.67 2.2%	0+0k 0+0io 0pf+0w
