----- GAMESS execution script 'rungms' -----
This job is running on host archvm
under operating system Linux at Mon Oct 13 16:18:13 EDT 2014
Available scratch disk space (Kbyte units) at beginning of the job is
Filesystem     1K-blocks     Used Available Use% Mounted on
/dev/vda1       80222524 55113940  21010592  73% /
GAMESS temporary binary files will be written to /scratch
GAMESS supplementary output files will be written to /scratch
Copying input file amo_snap.inp to your run's scratch directory...

 Distributed Data Interface kickoff program.
 Initiating 1 compute processes on 1 nodes to run the following command:
 /home/ben/programming/gamess/gamess-master/gamess.00.x amo_snap 

          ******************************************************
          *         GAMESS VERSION =  1 MAY 2013 (R1)          *
          *             FROM IOWA STATE UNIVERSITY             *
          * M.W.SCHMIDT, K.K.BALDRIDGE, J.A.BOATZ, S.T.ELBERT, *
          *   M.S.GORDON, J.H.JENSEN, S.KOSEKI, N.MATSUNAGA,   *
          *          K.A.NGUYEN, S.J.SU, T.L.WINDUS,           *
          *       TOGETHER WITH M.DUPUIS, J.A.MONTGOMERY       *
          *         J.COMPUT.CHEM.  14, 1347-1363(1993)        *
          **************** 64 BIT INTEL VERSION ****************

  SINCE 1993, STUDENTS AND POSTDOCS WORKING AT IOWA STATE UNIVERSITY
  AND ALSO IN THEIR VARIOUS JOBS AFTER LEAVING ISU HAVE MADE IMPORTANT
  CONTRIBUTIONS TO THE CODE:
     IVANA ADAMOVIC, CHRISTINE AIKENS, YURI ALEXEEV, POOJA ARORA,
     ANDREY ASADCHEV, ROB BELL, PRADIPTA BANDYOPADHYAY, JONATHAN BENTZ,
     BRETT BODE, GALINA CHABAN, WEI CHEN, CHEOL HO CHOI, PAUL DAY,
     ALBERT DEFUSCO, TIM DUDLEY, DMITRI FEDOROV, GRAHAM FLETCHER,
     MARK FREITAG, KURT GLAESEMANN, DAN KEMP, GRANT MERRILL,
     NORIYUKI MINEZAWA, JONATHAN MULLIN, TAKESHI NAGATA,
     SEAN NEDD, HEATHER NETZLOFF, BOSILJKA NJEGIC, RYAN OLSON, MIKE PAK,
     JIM SHOEMAKER, LYUDMILA SLIPCHENKO, SAROM SOK, JIE SONG,
     TETSUYA TAKETSUGU, SIMON WEBB, SOOHAENG YOO, FEDERICO ZAHARIEV

  ADDITIONAL CODE HAS BEEN PROVIDED BY COLLABORATORS IN OTHER GROUPS:
     IOWA STATE UNIVERSITY:
          JOE IVANIC, LAIMUTIS BYTAUTAS, KLAUS RUEDENBERG
     UNIVERSITY OF TOKYO: KIMIHIKO HIRAO, TAKAHITO NAKAJIMA,
          TAKAO TSUNEDA, MUNEAKI KAMIYA, SUSUMU YANAGISAWA,
          KIYOSHI YAGI, MAHITO CHIBA, SEIKEN TOKURA, NAOAKI KAWAKAMI
     UNIVERSITY OF AARHUS: FRANK JENSEN
     UNIVERSITY OF IOWA: VISVALDAS KAIRYS, HUI LI
     NATIONAL INST. OF STANDARDS AND TECHNOLOGY: WALT STEVENS, DAVID GARMER
     UNIVERSITY OF PISA: BENEDETTA MENNUCCI, JACOPO TOMASI
     UNIVERSITY OF MEMPHIS: HENRY KURTZ, PRAKASHAN KORAMBATH
     UNIVERSITY OF ALBERTA: TOBY ZENG, MARIUSZ KLOBUKOWSKI
     UNIVERSITY OF NEW ENGLAND: MARK SPACKMAN
     MIE UNIVERSITY: HIROAKI UMEDA
     MICHIGAN STATE UNIVERSITY:
          KAROL KOWALSKI, MARTA WLOCH, JEFFREY GOUR, JESSE LUTZ,
          WEI LI, PIOTR PIECUCH
     UNIVERSITY OF SILESIA: MONIKA MUSIAL, STANISLAW KUCHARSKI
     FACULTES UNIVERSITAIRES NOTRE-DAME DE LA PAIX:
          OLIVIER QUINET, BENOIT CHAMPAGNE
     UNIVERSITY OF CALIFORNIA - SANTA BARBARA: BERNARD KIRTMAN
     INSTITUTE FOR MOLECULAR SCIENCE:
          KAZUYA ISHIMURA, MICHIO KATOUDA, AND SHIGERU NAGASE
     UNIVERSITY OF NOTRE DAME: DAN CHIPMAN
     KYUSHU UNIVERSITY:
          HARUYUKI NAKANO,
          FENG LONG GU, JACEK KORCHOWIEC, MARCIN MAKOWSKI, AND YURIKO AOKI,
          HIROTOSHI MORI AND EISAKU MIYOSHI
     PENNSYLVANIA STATE UNIVERSITY:
          TZVETELIN IORDANOV, CHET SWALINA, JONATHAN SKONE,
          SHARON HAMMES-SCHIFFER
     WASEDA UNIVERSITY:
          MASATO KOBAYASHI, TOMOKO AKAMA, TSUGUKI TOUMA,
          TAKESHI YOSHIKAWA, YASUHIRO IKABATA, HIROMI NAKAI
     NANJING UNIVERSITY: SHUHUA LI
     UNIVERSITY OF NEBRASKA:
          PEIFENG SU, DEJUN SI, NANDUN THELLAMUREGE, YALI WANG, HUI LI
     UNIVERSITY OF ZURICH:
          ROBERTO PEVERATI, KIM BALDRIDGE
     N. COPERNICUS UNIVERSITY AND JACKSON STATE UNIVERSITY:
          MARIA BARYSZ

 EXECUTION OF GAMESS BEGUN Mon Oct 13 16:18:13 2014

            ECHO OF THE FIRST FEW INPUT CARDS -
 INPUT CARD> $CONTRL ispher=1 scftyp=rhf nprint=3 $end                                      
 INPUT CARD> $basis gbasis=sto ngauss=3 $end                                                
 INPUT CARD> $scf dirscf=.t. $end                                                           
 INPUT CARD> $system memory=10000000 $end                                                   
 INPUT CARD> $DATA                                                                          
 INPUT CARD>                                                                                
 INPUT CARD> C1                                                                             
 INPUT CARD> N           7.0   1.8753260893   1.2278971082   0.3595137322                   
 INPUT CARD> H           1.0   1.6237440122   1.5930738032  -0.5233893479                   
 INPUT CARD> H           1.0   2.8687723240   1.3533497046   0.4293906575                   
 INPUT CARD> H           1.0   1.5129248729   1.9281634681   0.9796664950                   
 INPUT CARD> $END                                                                           
 INPUT CARD> $EFRAG                                                                         
 INPUT CARD> coord=cart                                                                     
 INPUT CARD> FRAGNAME=H2ORHF  !   1                                                         
 INPUT CARD> ZO1                3.517294437373   -2.887816914827   -5.886557841379          
 INPUT CARD> ZH2                4.367786677780   -3.054547867261   -6.260378911632          
 INPUT CARD> ZH3                3.664563399044   -2.474278189587   -5.050988556573          
 INPUT CARD> FRAGNAME=H2ORHF  !   2                                                         
 INPUT CARD> ZO1                1.877062296430   -0.202351099550   -7.558092322248          
 INPUT CARD> ZH2                2.676142020815   -0.604157605919   -7.256593434069          
 INPUT CARD> ZH3                1.405485138706   -0.863680487976   -8.038859291137          
 INPUT CARD> FRAGNAME=H2ORHF  !   3                                                         
 INPUT CARD> ZO1                2.619165753122    1.965790289407   -5.741904128947          
 INPUT CARD> ZH2                1.981156750465    1.651297679741   -6.362321218559          
 INPUT CARD> ZH3                2.303200236949    1.729457044419   -4.884471423721          
 INPUT CARD> FRAGNAME=H2ORHF  !   4                                                         
 INPUT CARD> ZO1                1.049257929564   -2.320339101797   -1.490326206959          
 INPUT CARD> ZH2                0.210464267210   -2.047610349225   -1.826365897430          
 INPUT CARD> ZH3                1.060038502346   -2.096360659539   -0.573486040566          
 INPUT CARD> FRAGNAME=H2ORHF  !   5                                                         
 INPUT CARD> ZO1                3.606151058277   -1.441701420204   -3.507624530972          
 INPUT CARD> ZH2                4.087399982368   -0.698276572075   -3.181131924148          
 INPUT CARD> ZH3                3.184768292956   -1.840345095905   -2.763045294773          
 INPUT CARD> FRAGNAME=H2ORHF  !   6                                                         
 INPUT CARD> ZO1                0.744909362801    3.352365519881    5.864021847575          
 INPUT CARD> ZH2                1.662363511476    3.268653919336    5.658720344704          
 INPUT CARD> ZH3                0.313775401590    2.599952415991    5.491360496409          
 INPUT CARD> FRAGNAME=H2ORHF  !   7                                                         
 INPUT CARD> ZO1                1.323846271910   -4.606643028900   -6.600905589997          
 INPUT CARD> ZH2                1.417950501449   -5.038456918443   -5.766903424018          
 INPUT CARD> ZH3                2.008150884592   -3.958379749109   -6.649489241697          
 INPUT CARD> FRAGNAME=H2ORHF  !   8                                                         
 INPUT CARD> ZO1                1.380528524502   -3.758769933521    1.532046764354          
 INPUT CARD> ZH2                1.073071339773   -4.041420159039    2.378484820947          
 INPUT CARD> ZH3                0.730180550370   -4.028264931344    0.903319150227          
 INPUT CARD> FRAGNAME=H2ORHF  !   9                                                         
 INPUT CARD> ZO1               -3.761549596022    0.192570149988   -5.941324421296          
 INPUT CARD> ZH2               -4.496867961943    0.361611830071   -6.508431347005          
 INPUT CARD> ZH3               -4.050798766360    0.372631697693   -5.061102170641          
   10000000 WORDS OF MEMORY AVAILABLE

     BASIS OPTIONS
     -------------
     GBASIS=STO          IGAUSS=       3      POLAR=NONE    
     NDFUNC=       0     NFFUNC=       0     DIFFSP=       F
     NPFUNC=       0      DIFFS=       F     BASNAM=        


     RUN TITLE
     ---------
                                                                                 

 THE POINT GROUP OF THE MOLECULE IS C1      
 THE ORDER OF THE PRINCIPAL AXIS IS     0

 ATOM      ATOMIC                      COORDINATES (BOHR)
           CHARGE         X                   Y                   Z
 N           7.0     3.5438524464        2.3203890756        0.6793824427
 H           1.0     3.0684312573        3.0104729663       -0.9890624524
 H           1.0     5.4211936135        2.5574601073        0.8114306844
 H           1.0     2.8590134498        3.6437006142        1.8513012349

          INTERNUCLEAR DISTANCES (ANGS.)
          ------------------------------

                1 N          2 H          3 H          4 H     

   1 N       0.0000000    0.9880108 *  1.0037712 *  1.0031436 *
   2 H       0.9880108 *  0.0000000    1.5859864 *  1.5439374 *
   3 H       1.0037712 *  1.5859864 *  0.0000000    1.5721122 *
   4 H       1.0031436 *  1.5439374 *  1.5721122 *  0.0000000  

  * ... LESS THAN  3.000


     ATOMIC BASIS SET
     ----------------
 THE CONTRACTED PRIMITIVE FUNCTIONS HAVE BEEN UNNORMALIZED
 THE CONTRACTED BASIS FUNCTIONS ARE NOW NORMALIZED TO UNITY

  SHELL TYPE  PRIMITIVE        EXPONENT          CONTRACTION COEFFICIENT(S)

 N         

      1   S       1            99.1061690    0.154328967295
      1   S       2            18.0523124    0.535328142282
      1   S       3             4.8856602    0.444634542185

      2   L       4             3.7804559   -0.099967229187    0.155916274999
      2   L       5             0.8784966    0.399512826089    0.607683718598
      2   L       6             0.2857144    0.700115468880    0.391957393099

 H         

      3   S       7             3.4252509    0.154328967295
      3   S       8             0.6239137    0.535328142282
      3   S       9             0.1688554    0.444634542185

 H         

      4   S      10             3.4252509    0.154328967295
      4   S      11             0.6239137    0.535328142282
      4   S      12             0.1688554    0.444634542185

 H         

      5   S      13             3.4252509    0.154328967295
      5   S      14             0.6239137    0.535328142282
      5   S      15             0.1688554    0.444634542185

 TOTAL NUMBER OF BASIS SET SHELLS             =    5
 NUMBER OF CARTESIAN GAUSSIAN BASIS FUNCTIONS =    8
 NOTE: THIS RUN WILL RESTRICT THE MO VARIATION SPACE TO SPHERICAL HARMONICS.
 THE NUMBER OF ORBITALS KEPT IN THE VARIATIONAL SPACE WILL BE PRINTED LATER.
 NUMBER OF ELECTRONS                          =   10
 CHARGE OF MOLECULE                           =    0
 SPIN MULTIPLICITY                            =    1
 NUMBER OF OCCUPIED ORBITALS (ALPHA)          =    5
 NUMBER OF OCCUPIED ORBITALS (BETA )          =    5
 TOTAL NUMBER OF ATOMS                        =    4
 THE NUCLEAR REPULSION ENERGY IS       12.1451530544

     $CONTRL OPTIONS
     ---------------
 SCFTYP=RHF          RUNTYP=ENERGY       EXETYP=RUN     
 MPLEVL=       0     CITYP =NONE         CCTYP =NONE         VBTYP =NONE    
 DFTTYP=NONE         TDDFT =NONE    
 MULT  =       1     ICHARG=       0     NZVAR =       0     COORD =UNIQUE  
 PP    =NONE         RELWFN=NONE         LOCAL =NONE         NUMGRD=       F
 ISPHER=       1     NOSYM =       0     MAXIT =      30     UNITS =ANGS    
 PLTORB=       F     MOLPLT=       F     AIMPAC=       F     FRIEND=        
 NPRINT=       3     IREST =       0     GEOM  =INPUT   
 NORMF =       0     NORMP =       0     ITOL  =      20     ICUT  =       9
 INTTYP=BEST         GRDTYP=BEST         QMTTOL= 1.0E-06

     $SYSTEM OPTIONS
     ---------------
  REPLICATED MEMORY=    10000000 WORDS (ON EVERY NODE).
 DISTRIBUTED MEMDDI=           0 MILLION WORDS IN AGGREGATE,
 MEMDDI DISTRIBUTED OVER   1 PROCESSORS IS           0 WORDS/PROCESSOR.
 TOTAL MEMORY REQUESTED ON EACH PROCESSOR=    10000000 WORDS.
 TIMLIM=      525600.00 MINUTES, OR     365.0 DAYS.
 PARALL= F  BALTYP=  DLB     KDIAG=    0  COREFL= F
 MXSEQ2=     300 MXSEQ3=     150

 READING $EFRAG GROUP
 COORD=CART      POSITION=OPTIMIZE  POLMETHD=FRGSCF   NBUFFMO=0
 READING COORDINATES OF FRAGMENT   1 NAMED   H2ORHF
 READING COORDINATES OF FRAGMENT   2 NAMED   H2ORHF
 READING COORDINATES OF FRAGMENT   3 NAMED   H2ORHF
 READING COORDINATES OF FRAGMENT   4 NAMED   H2ORHF
 READING COORDINATES OF FRAGMENT   5 NAMED   H2ORHF
 READING COORDINATES OF FRAGMENT   6 NAMED   H2ORHF
 READING COORDINATES OF FRAGMENT   7 NAMED   H2ORHF
 READING COORDINATES OF FRAGMENT   8 NAMED   H2ORHF
 READING COORDINATES OF FRAGMENT   9 NAMED   H2ORHF
 READING COORDINATES OF FRAGMENT  10 NAMED   H2ORHF
 READING COORDINATES OF FRAGMENT  11 NAMED   H2ORHF
 READING COORDINATES OF FRAGMENT  12 NAMED   H2ORHF
 READING COORDINATES OF FRAGMENT  13 NAMED   H2ORHF
 READING COORDINATES OF FRAGMENT  14 NAMED   H2ORHF
 READING COORDINATES OF FRAGMENT  15 NAMED   H2ORHF
 READING COORDINATES OF FRAGMENT  16 NAMED   H2ORHF
 READING COORDINATES OF FRAGMENT  17 NAMED   H2ORHF
 READING COORDINATES OF FRAGMENT  18 NAMED   H2ORHF
 READING COORDINATES OF FRAGMENT  19 NAMED   H2ORHF
 READING COORDINATES OF FRAGMENT  20 NAMED   H2ORHF
 READING COORDINATES OF FRAGMENT  21 NAMED   H2ORHF
 READING COORDINATES OF FRAGMENT  22 NAMED   H2ORHF
 READING COORDINATES OF FRAGMENT  23 NAMED   H2ORHF
 READING COORDINATES OF FRAGMENT  24 NAMED   H2ORHF
 READING COORDINATES OF FRAGMENT  25 NAMED   H2ORHF
 READING COORDINATES OF FRAGMENT  26 NAMED   H2ORHF
 READING COORDINATES OF FRAGMENT  27 NAMED   H2ORHF
 READING COORDINATES OF FRAGMENT  28 NAMED   H2ORHF
 READING COORDINATES OF FRAGMENT  29 NAMED   H2ORHF
 READING COORDINATES OF FRAGMENT  30 NAMED   H2ORHF
 READING COORDINATES OF FRAGMENT  31 NAMED   H2ORHF
 READING COORDINATES OF FRAGMENT  32 NAMED   H2ORHF
 READING COORDINATES OF FRAGMENT  33 NAMED   H2ORHF
 READING COORDINATES OF FRAGMENT  34 NAMED   H2ORHF
 READING COORDINATES OF FRAGMENT  35 NAMED   H2ORHF
 READING COORDINATES OF FRAGMENT  36 NAMED   H2ORHF
 READING COORDINATES OF FRAGMENT  37 NAMED   H2ORHF
 READING COORDINATES OF FRAGMENT  38 NAMED   H2ORHF
 READING COORDINATES OF FRAGMENT  39 NAMED   H2ORHF
 READING COORDINATES OF FRAGMENT  40 NAMED   H2ORHF
 READING COORDINATES OF FRAGMENT  41 NAMED   H2ORHF
 READING COORDINATES OF FRAGMENT  42 NAMED   H2ORHF
 READING COORDINATES OF FRAGMENT  43 NAMED   H2ORHF
 READING COORDINATES OF FRAGMENT  44 NAMED   H2ORHF
 READING COORDINATES OF FRAGMENT  45 NAMED   H2ORHF
 READING COORDINATES OF FRAGMENT  46 NAMED   H2ORHF
 READING COORDINATES OF FRAGMENT  47 NAMED   H2ORHF
 READING COORDINATES OF FRAGMENT  48 NAMED   H2ORHF
 READING COORDINATES OF FRAGMENT  49 NAMED   H2ORHF
 READING COORDINATES OF FRAGMENT  50 NAMED   H2ORHF
 FINISHED READING $EFRAG GROUP,  50 FRAGMENTS WILL BE USED.



     SUMMARY OF THE EFFECTIVE FRAGMENT POTENTIAL MODEL CHOSEN
     --------------------------------------------------------
 TOTAL NUMBER OF MULTIPOLE POINTS   =       400  (EFP1/EFP2 ELECTROSTATICS)
 TOTAL NUMBER OF POLARIZABLE POINTS =       250  (EFP1/EFP2 INDUCTION)
 TOTAL NUMBER OF L-J POINTS         =         0  (REPULSION AND DISPERSION)
 TOTAL NUMBER OF REPULSIVE POINTS   =       150  (EFP1 REPULSION/ETC.)

 THIS IS A -EFP1- TYPE RUN, WITH PAULI REPULSION, CHARGE TRANSFER, AND
 HIGHER ORDER EFFECTS COLLECTED IN A FITTED REPULSIVE POTENTIAL.

 OPTIONS FOR EFP SCREENING:
     ELECTROSTATIC AB INITIO-EFP GAUSSIAN SCREENING IS ON
     ELECTROSTATIC EFP-EFP SCREENING CHOICE IS GAUSSIAN, FOR CHARGE/CHARGE
     POLARIZATION EFP-EFP SCREENING IS OFF

     $EWALD OPTIONS
     -----------

     IFEWLD   =        F         TINFOIL        =        T
     BETA    =    0.200         ELECTRIC CONST =     1.00
     EPSILON =     1.00         CUT_OFF        = 0.10E+04
     CUTLIST =  1000.00         LEVEL          =    1
     KMAX    =       10         EWLDPL         =        F

            MULTIPOLE COORDINATES, ELECTRONIC AND NUCLEAR CHARGES

                  X              Y              Z           ELEC.   NUC.
 ZO1        6.6467227048  -5.4571826717 -11.1239813311    8.00000    0.0
 ZH2        8.2539199938  -5.7722584855 -11.8304007223    1.00000    0.0
 ZH3        6.9250206888  -4.6757077957  -9.5449843390    1.00000    0.0
 O1         6.6467227048  -5.4571826717 -11.1239813311   -8.21083    0.0
 H2         8.2539199938  -5.7722584855 -11.8304007223   -0.55665    0.0
 H3         6.9250206888  -4.6757077957  -9.5449843390   -0.55665    0.0
 B12        7.4503209066  -5.6147206881 -11.4771912316   -0.33793    0.0
 B13        6.7858712541  -5.0664453432 -10.3344830400   -0.33793    0.0
 ZO1        3.5471334021  -0.3823881315 -14.2827234790    8.00000    0.0
 ZH2        5.0571751236  -1.1416923286 -13.7129731947    1.00000    0.0
 ZH3        2.6559817920  -1.6321194632 -15.1912413141    1.00000    0.0
 O1         3.5471334021  -0.3823881315 -14.2827234790   -8.21083    0.0
 H2         5.0571751236  -1.1416923286 -13.7129731947   -0.55665    0.0
 H3         2.6559817920  -1.6321194632 -15.1912413141   -0.55665    0.0
 B12        4.3021541175  -0.7620397583 -13.9978482573   -0.33793    0.0
 B13        3.1015574517  -1.0072533256 -14.7369823170   -0.33793    0.0
 ZO1        4.9495055898   3.7148049963 -10.8506254515    8.00000    0.0
 ZH2        3.7438433971   3.1205001389 -12.0230437489    1.00000    0.0
 ZH3        4.3524173427   3.2681999215  -9.2303125857    1.00000    0.0
 O1         4.9495055898   3.7148049963 -10.8506254515   -8.21083    0.0
 H2         3.7438433971   3.1205001389 -12.0230437489   -0.55665    0.0
 H3         4.3524173427   3.2681999215  -9.2303125857   -0.55665    0.0
 B12        4.3466749168   3.4176528120 -11.4368347054   -0.33793    0.0
 B13        4.6509618896   3.4915027033 -10.0404691238   -0.33793    0.0
 ZO1        1.9828099773  -4.3848051010  -2.8163081635    8.00000    0.0
 ZH2        0.3977197952  -3.8694224897  -3.4513310995    1.00000    0.0
 ZH3        2.0031823059  -3.9615472180  -1.0837314744    1.00000    0.0
 O1         1.9828099773  -4.3848051010  -2.8163081635   -8.21083    0.0
 H2         0.3977197952  -3.8694224897  -3.4513310995   -0.55665    0.0
 H3         2.0031823059  -3.9615472180  -1.0837314744   -0.55665    0.0
 B12        1.1902652537  -4.1271140157  -3.1338198892   -0.33793    0.0
 B13        1.9929965090  -4.1731763799  -1.9500200767   -0.33793    0.0
 ZO1        6.8146373705  -2.7244206403  -6.6284492313    8.00000    0.0
 ZH2        7.7240659689  -1.3195513849  -6.0114676674    1.00000    0.0
 ZH3        6.0183394081  -3.4777479541  -5.2213984988    1.00000    0.0
 O1         6.8146373705  -2.7244206403  -6.6284492313   -8.21083    0.0
 H2         7.7240659689  -1.3195513849  -6.0114676674   -0.55665    0.0
 H3         6.0183394081  -3.4777479541  -5.2213984988   -0.55665    0.0
 B12        7.2693516431  -2.0219861656  -6.3199589247   -0.33793    0.0
 B13        6.4164883627  -3.1010844502  -5.9249243403   -0.33793    0.0
 ZO1        1.4076745814   6.3350522433  11.0813944779    8.00000    0.0
 ZH2        3.1414115287   6.1768602562  10.6934308926    1.00000    0.0
 ZH3        0.5929495307   4.9131976473  10.3771666380    1.00000    0.0
 O1         1.4076745814   6.3350522433  11.0813944779   -8.21083    0.0
 H2         3.1414115287   6.1768602562  10.6934308926   -0.55665    0.0
 H3         0.5929495307   4.9131976473  10.3771666380   -0.55665    0.0
 B12        2.2745428392   6.2559566208  10.8874129417   -0.33793    0.0
 B13        1.0003118402   5.6241253163  10.7292808144   -0.33793    0.0
 ZO1        2.5017067038  -8.7052930479 -12.4739028359    8.00000    0.0
 ZH2        2.6795379119  -9.5213029768 -10.8978672691    1.00000    0.0
 ZH3        3.7948549139  -7.4802530812 -12.5657126251    1.00000    0.0
 O1         2.5017067038  -8.7052930479 -12.4739028359   -8.21083    0.0
 H2         2.6795379119  -9.5213029768 -10.8978672691   -0.55665    0.0
 H3         3.7948549139  -7.4802530812 -12.5657126251   -0.55665    0.0
 B12        2.5906219624  -9.1132981084 -11.6858854010   -0.33793    0.0
 B13        3.1482804634  -8.0927731606 -12.5198080790   -0.33793    0.0
 ZO1        2.6088206295  -7.1030452252   2.8951485850    8.00000    0.0
 ZH2        2.0278107975  -7.6371767018   4.4946845775    1.00000    0.0
 ZH3        1.3798411618  -7.6123169262   1.7070256734    1.00000    0.0
 O1         2.6088206295  -7.1030452252   2.8951485850   -8.21083    0.0
 H2         2.0278107975  -7.6371767018   4.4946845775   -0.55665    0.0
 H3         1.3798411618  -7.6123169262   1.7070256734   -0.55665    0.0
 B12        2.3183161385  -7.3701107185   3.6949164847   -0.33793    0.0
 B13        1.9943313207  -7.3576808307   2.3010870326   -0.33793    0.0
 ZO1       -7.1082980257   0.3639048169 -11.2274751604    8.00000    0.0
 ZH2       -8.4978482510   0.6833472728 -12.2991518557    1.00000    0.0
 ZH3       -7.6548996998   0.7041718030  -9.5640962984    1.00000    0.0
 O1        -7.1082980257   0.3639048169 -11.2274751604   -8.21083    0.0
 H2        -8.4978482510   0.6833472728 -12.2991518557   -0.55665    0.0
 H3        -7.6548996998   0.7041718030  -9.5640962984   -0.55665    0.0
 B12       -7.8030726837   0.5236258899 -11.7633136470   -0.33793    0.0
 B13       -7.3815984081   0.5340381550 -10.3957858683   -0.33793    0.0
 ZO1       -1.1105578600  -0.8243067009 -10.9311969440    8.00000    0.0
 ZH2        0.6373886629  -0.8955040966 -11.2790448056    1.00000    0.0
 ZH3       -1.9456517414  -0.7857158562 -12.5067962606    1.00000    0.0
 O1        -1.1105578600  -0.8243067009 -10.9311969440   -8.21083    0.0
 H2         0.6373886629  -0.8955040966 -11.2790448056   -0.55665    0.0
 H3        -1.9456517414  -0.7857158562 -12.5067962606   -0.55665    0.0
 B12       -0.2365848129  -0.8599053911 -11.1051204231   -0.33793    0.0
 B13       -1.5281050151  -0.8050112709 -11.7189961506   -0.33793    0.0
 ZO1       10.6800707062  -0.1520136074   8.2792984348    8.00000    0.0
 ZH2       12.1418808426  -1.1719938330   8.3436079622    1.00000    0.0
 ZH3        9.5327018499  -0.9689253962   7.1849565835    1.00000    0.0
 O1        10.6800707062  -0.1520136074   8.2792984348   -8.21083    0.0
 H2        12.1418808426  -1.1719938330   8.3436079622   -0.55665    0.0
 H3         9.5327018499  -0.9689253962   7.1849565835   -0.55665    0.0
 B12       11.4109757006  -0.6620032889   8.3114534404   -0.33793    0.0
 B13       10.1063862042  -0.5604690705   7.7321277510   -0.33793    0.0
 ZO1        2.3576117256  -8.8394351677  -6.5496808508    8.00000    0.0
 ZH2        2.5826948249  -7.0981204147  -6.2357624218    1.00000    0.0
 ZH3        1.0771649415  -9.3988762854  -5.4411386010    1.00000    0.0
 O1         2.3576117256  -8.8394351677  -6.5496808508   -8.21083    0.0
 H2         2.5826948249  -7.0981204147  -6.2357624218   -0.55665    0.0
 H3         1.0771649415  -9.3988762854  -5.4411386010   -0.55665    0.0
 B12        2.4701535231  -7.9687780687  -6.3927219703   -0.33793    0.0
 B13        1.7173885813  -9.1191560041  -5.9954100599   -0.33793    0.0
 ZO1       10.1694353189   1.7283565875  -5.7489786295    8.00000    0.0
 ZH2        9.2236429647   2.8834354484  -6.7250185357    1.00000    0.0
 ZH3       10.4356215348   2.4963014269  -4.1612790758    1.00000    0.0
 O1        10.1694353189   1.7283565875  -5.7489786295   -8.21083    0.0
 H2         9.2236429647   2.8834354484  -6.7250185357   -0.55665    0.0
 H3        10.4356215348   2.4963014269  -4.1612790758   -0.55665    0.0
 B12        9.6965393014   2.3058955664  -6.2369987262   -0.33793    0.0
 B13       10.3025285864   2.1123285556  -4.9551289963   -0.33793    0.0
 ZO1       -9.8391077897   0.4097477636  -6.1088807544    8.00000    0.0
 ZH2       -9.5323118767   1.5021037969  -4.7326471932    1.00000    0.0
 ZH3      -11.5362914749  -0.1217653755  -5.9730662772    1.00000    0.0
 O1        -9.8391077897   0.4097477636  -6.1088807544   -8.21083    0.0
 H2        -9.5323118767   1.5021037969  -4.7326471932   -0.55665    0.0
 H3       -11.5362914749  -0.1217653755  -5.9730662772   -0.55665    0.0
 B12       -9.6857095067   0.9559256486  -5.4207643288   -0.33793    0.0
 B13      -10.6876993058   0.1439910624  -6.0409738708   -0.33793    0.0
 ZO1       -1.2638305710   4.1804666528  -7.8246522443    8.00000    0.0
 ZH2       -1.0124734961   3.2148423581  -9.3030884428    1.00000    0.0
 ZH3       -3.0272769633   4.3084053783  -7.5895506602    1.00000    0.0
 O1        -1.2638305710   4.1804666528  -7.8246522443   -8.21083    0.0
 H2        -1.0124734961   3.2148423581  -9.3030884428   -0.55665    0.0
 H3        -3.0272769633   4.3084053783  -7.5895506602   -0.55665    0.0
 B12       -1.1381516785   3.6976547022  -8.5638700516   -0.33793    0.0
 B13       -2.1455534121   4.2444362123  -7.7071011603   -0.33793    0.0
 ZO1       -0.4606100648  -9.3859288787   6.4865699712    8.00000    0.0
 ZH2       -0.7096833305  -8.2088643635   7.8033333843    1.00000    0.0
 ZH3       -2.0319990735  -9.5753306945   5.6642271072    1.00000    0.0
 O1        -0.4606100648  -9.3859288787   6.4865699712   -8.21083    0.0
 H2        -0.7096833305  -8.2088643635   7.8033333843   -0.55665    0.0
 H3        -2.0319990735  -9.5753306945   5.6642271072   -0.55665    0.0
 B12       -0.5851462702  -8.7973968530   7.1449515617   -0.33793    0.0
 B13       -1.2463041417  -9.4806300185   6.0753984231   -0.33793    0.0
 ZO1       -2.5818000737 -11.9050298033  -2.2741571401    8.00000    0.0
 ZH2       -2.7274094328 -13.6441678195  -2.6423705642    1.00000    0.0
 ZH3       -3.5074742310 -11.0364666541  -3.5271973074    1.00000    0.0
 O1        -2.5818000737 -11.9050298033  -2.2741571401   -8.21083    0.0
 H2        -2.7274094328 -13.6441678195  -2.6423705642   -0.55665    0.0
 H3        -3.5074742310 -11.0364666541  -3.5271973074   -0.55665    0.0
 B12       -2.6546045017 -12.7745986070  -2.4582634714   -0.33793    0.0
 B13       -3.0446369008 -11.4707480243  -2.9006768430   -0.33793    0.0
 ZO1       -9.7747355416   4.1411048233  -0.8327950874    8.00000    0.0
 ZH2       -9.5133713000   2.6607060542   0.1271489049    1.00000    0.0
 ZH3       -8.2804830876   5.1064370560  -0.7034601159    1.00000    0.0
 O1        -9.7747355416   4.1411048233  -0.8327950874   -8.21083    0.0
 H2        -9.5133713000   2.6607060542   0.1271489049   -0.55665    0.0
 H3        -8.2804830876   5.1064370560  -0.7034601159   -0.55665    0.0
 B12       -9.6440538331   3.4009055597  -0.3528233470   -0.33793    0.0
 B13       -9.0276097269   4.6237710606  -0.7681278574   -0.33793    0.0
 ZO1        1.7452803246   9.3410368774  -6.8371231734    8.00000    0.0
 ZH2        0.9081261709  10.0414444149  -5.4264543764    1.00000    0.0
 ZH3        0.9187327533   7.8059695493  -7.2136489513    1.00000    0.0
 O1         1.7452803246   9.3410368774  -6.8371231734   -8.21083    0.0
 H2         0.9081261709  10.0414444149  -5.4264543764   -0.55665    0.0
 H3         0.9187327533   7.8059695493  -7.2136489513   -0.55665    0.0
 B12        1.3267036384   9.6912408421  -6.1317890177   -0.33793    0.0
 B13        1.3320069296   8.5735034093  -7.0253863052   -0.33793    0.0
 ZO1       12.6085272235 -14.3618717582   5.9978780792    8.00000    0.0
 ZH2       11.6935209036 -15.8908974530   6.0767964532    1.00000    0.0
 ZH3       11.4895067597 -13.0681251505   6.5032464274    1.00000    0.0
 O1        12.6085272235 -14.3618717582   5.9978780792   -8.21083    0.0
 H2        11.6935209036 -15.8908974530   6.0767964532   -0.55665    0.0
 H3        11.4895067597 -13.0681251505   6.5032464274   -0.55665    0.0
 B12       12.1510245412 -15.1263845504   6.0373371290   -0.33793    0.0
 B13       12.0490174692 -13.7149983991   6.2505621161   -0.33793    0.0
 ZO1       16.1552814825   4.7850264023   1.7667091093    8.00000    0.0
 ZH2       15.8500594485   5.0358181376   0.0273623164    1.00000    0.0
 ZH3       17.1181123780   3.2902355877   1.9079229117    1.00000    0.0
 O1        16.1552814825   4.7850264023   1.7667091093   -8.21083    0.0
 H2        15.8500594485   5.0358181376   0.0273623164   -0.55665    0.0
 H3        17.1181123780   3.2902355877   1.9079229117   -0.55665    0.0
 B12       16.0026703111   4.9104225621   0.8970360881   -0.33793    0.0
 B13       16.6366967758   4.0376312871   1.8373163858   -0.33793    0.0
 ZO1       -9.3705146623   0.6914205680   3.4573079099    8.00000    0.0
 ZH2       -9.4906547248   1.8676330559   4.7927759175    1.00000    0.0
 ZH3       -8.0333234386  -0.4153291266   3.8676845606    1.00000    0.0
 O1        -9.3705146623   0.6914205680   3.4573079099   -8.21083    0.0
 H2        -9.4906547248   1.8676330559   4.7927759175   -0.55665    0.0
 H3        -8.0333234386  -0.4153291266   3.8676845606   -0.55665    0.0
 B12       -9.4305849793   1.2795267956   4.1250415038   -0.33793    0.0
 B13       -8.7019193362   0.1380457044   3.6624958253   -0.33793    0.0
 ZO1       -4.9331601182  -9.8595045128  -6.6207011996    8.00000    0.0
 ZH2       -4.1526125047  -8.5367962192  -7.5276589957    1.00000    0.0
 ZH3       -6.6750046670  -9.4806155397  -6.5590168053    1.00000    0.0
 O1        -4.9331601182  -9.8595045128  -6.6207011996   -8.21083    0.0
 H2        -4.1526125047  -8.5367962192  -7.5276589957   -0.55665    0.0
 H3        -6.6750046670  -9.4806155397  -6.5590168053   -0.55665    0.0
 B12       -4.5428860857  -9.1981507655  -7.0741798991   -0.33793    0.0
 B13       -5.8040821668  -9.6700604258  -6.5898588039   -0.33793    0.0
 ZO1      -14.4026451903  -2.6003817361  -2.8176183280    8.00000    0.0
 ZH2      -15.0923795021  -2.4374185249  -1.1808245653    1.00000    0.0
 ZH3      -15.1295783405  -4.0616499809  -3.5370956124    1.00000    0.0
 O1       -14.4026451903  -2.6003817361  -2.8176183280   -8.21083    0.0
 H2       -15.0923795021  -2.4374185249  -1.1808245653   -0.55665    0.0
 H3       -15.1295783405  -4.0616499809  -3.5370956124   -0.55665    0.0
 B12      -14.7475120135  -2.5188998256  -1.9992216621   -0.33793    0.0
 B13      -14.7661114327  -3.3310155536  -3.1773571856   -0.33793    0.0
 ZO1      -14.1934846540   6.1847498170   2.0602587135    8.00000    0.0
 ZH2      -12.7783740467   6.2894508328   0.9795719332    1.00000    0.0
 ZH3      -15.6322794768   6.0756458702   1.0117597687    1.00000    0.0
 O1       -14.1934846540   6.1847498170   2.0602587135   -8.21083    0.0
 H2       -12.7783740467   6.2894508328   0.9795719332   -0.55665    0.0
 H3       -15.6322794768   6.0756458702   1.0117597687   -0.55665    0.0
 B12      -13.4859293448   6.2371003259   1.5199158233   -0.33793    0.0
 B13      -14.9128820599   6.1301978446   1.5360097411   -0.33793    0.0
 ZO1        7.1055418947   7.2979141043  -7.4938141455    8.00000    0.0
 ZH2        7.3680291400   7.1664648839  -9.2531338433    1.00000    0.0
 ZH3        5.4283740925   7.8607264618  -7.2663615912    1.00000    0.0
 O1         7.1055418947   7.2979141043  -7.4938141455   -8.21083    0.0
 H2         7.3680291400   7.1664648839  -9.2531338433   -0.55665    0.0
 H3         5.4283740925   7.8607264618  -7.2663615912   -0.55665    0.0
 B12        7.2367858495   7.2321893928  -8.3734736347   -0.33793    0.0
 B13        6.2669583258   7.5793201817  -7.3800875086   -0.33793    0.0
 ZO1        6.8480006875  12.1958251087  -4.6092057453    8.00000    0.0
 ZH2        8.0945584466  11.3882348042  -5.5967663278    1.00000    0.0
 ZH3        5.2768591628  11.5171574037  -5.1115091458    1.00000    0.0
 O1         6.8480006875  12.1958251087  -4.6092057453   -8.21083    0.0
 H2         8.0945584466  11.3882348042  -5.5967663278   -0.55665    0.0
 H3         5.2768591628  11.5171574037  -5.1115091458   -0.55665    0.0
 B12        7.4712796433  11.7920303055  -5.1029856867   -0.33793    0.0
 B13        6.0624300014  11.8564916052  -4.8603570957   -0.33793    0.0
 ZO1       -6.2824214873  -4.6564065054   5.2177681996    8.00000    0.0
 ZH2       -7.9144232738  -5.2080475102   4.7555489646    1.00000    0.0
 ZH3       -5.1262673854  -5.6038980344   4.2446537428    1.00000    0.0
 O1        -6.2824214873  -4.6564065054   5.2177681996   -8.21083    0.0
 H2        -7.9144232738  -5.2080475102   4.7555489646   -0.55665    0.0
 H3        -5.1262673854  -5.6038980344   4.2446537428   -0.55665    0.0
 B12       -7.0984222688  -4.9322266558   4.9866589191   -0.33793    0.0
 B13       -5.7043443246  -5.1301519179   4.7312113082   -0.33793    0.0
 ZO1       -5.8358362486   5.7415426304   8.1572249388    8.00000    0.0
 ZH2       -4.6409465702   6.9154481102   7.5443882300    1.00000    0.0
 ZH3       -4.9291783060   4.2704746762   8.5991691661    1.00000    0.0
 O1        -5.8358362486   5.7415426304   8.1572249388   -8.21083    0.0
 H2        -4.6409465702   6.9154481102   7.5443882300   -0.55665    0.0
 H3        -4.9291783060   4.2704746762   8.5991691661   -0.55665    0.0
 B12       -5.2383919029   6.3284954400   7.8508066245   -0.33793    0.0
 B13       -5.3825077708   5.0060087231   8.3781970926   -0.33793    0.0
 ZO1        0.3242546419   9.8462483495  -0.4747146594    8.00000    0.0
 ZH2       -0.6870607244   9.6297497364   0.9784728134    1.00000    0.0
 ZH3        1.9443594057  10.3276720868   0.0952642790    1.00000    0.0
 O1         0.3242546419   9.8462483495  -0.4747146594   -8.21083    0.0
 H2        -0.6870607244   9.6297497364   0.9784728134   -0.55665    0.0
 H3         1.9443594057  10.3276720868   0.0952642790   -0.55665    0.0
 B12       -0.1814031842   9.7379989808   0.2518786019   -0.33793    0.0
 B13        1.1343068808  10.0869601559  -0.1897256653   -0.33793    0.0
 ZO1        7.4595087686  -2.7521886176   4.5818552264    8.00000    0.0
 ZH2        5.9689414508  -1.8651792251   4.1661538198    1.00000    0.0
 ZH3        7.0342045688  -4.4841407698   4.6108781615    1.00000    0.0
 O1         7.4595087686  -2.7521886176   4.5818552264   -8.21083    0.0
 H2         5.9689414508  -1.8651792251   4.1661538198   -0.55665    0.0
 H3         7.0342045688  -4.4841407698   4.6108781615   -0.55665    0.0
 B12        6.7142255596  -2.3086837230   4.3740046139   -0.33793    0.0
 B13        7.2468571186  -3.6181644953   4.5963667847   -0.33793    0.0
 ZO1       -1.9264653571  -6.2163529890  -9.3702707261    8.00000    0.0
 ZH2       -2.2141913304  -4.5271011462  -9.8652719650    1.00000    0.0
 ZH3       -0.6361909834  -6.8477077648 -10.4276105194    1.00000    0.0
 O1        -1.9264653571  -6.2163529890  -9.3702707261   -8.21083    0.0
 H2        -2.2141913304  -4.5271011462  -9.8652719650   -0.55665    0.0
 H3        -0.6361909834  -6.8477077648 -10.4276105194   -0.55665    0.0
 B12       -2.0703285792  -5.3717273160  -9.6177709810   -0.33793    0.0
 B13       -1.2813284057  -6.5320306253  -9.8989402582   -0.33793    0.0
 ZO1        7.2375686478 -11.9529485363   7.6441664500    8.00000    0.0
 ZH2        7.1070557243 -12.2909710594   9.3906175376    1.00000    0.0
 ZH3        5.5926978306 -11.5672015382   7.0723417401    1.00000    0.0
 O1         7.2375686478 -11.9529485363   7.6441664500   -8.21083    0.0
 H2         7.1070557243 -12.2909710594   9.3906175376   -0.55665    0.0
 H3         5.5926978306 -11.5672015382   7.0723417401   -0.55665    0.0
 B12        7.1723126029 -12.1219598090   8.5173917180   -0.33793    0.0
 B13        6.4151336561 -11.7600750485   7.3582538193   -0.33793    0.0
 ZO1       -4.8817420535  -9.8540124568   2.6251977927    8.00000    0.0
 ZH2       -6.2013068718 -11.0445688241   2.7758911154    1.00000    0.0
 ZH3       -3.9345231329 -10.3179082845   1.1868093792    1.00000    0.0
 O1        -4.8817420535  -9.8540124568   2.6251977927   -8.21083    0.0
 H2        -6.2013068718 -11.0445688241   2.7758911154   -0.55665    0.0
 H3        -3.9345231329 -10.3179082845   1.1868093792   -0.55665    0.0
 B12       -5.5415243752 -10.4492902519   2.7005447565   -0.33793    0.0
 B13       -4.4081325058 -10.0859599822   1.9060038884   -0.33793    0.0
 ZO1       -6.1890903289  -2.3613377120  10.2570695130    8.00000    0.0
 ZH2       -7.7746015839  -2.0478707314  11.0115738292    1.00000    0.0
 ZH3       -6.4911189612  -3.4098307281   8.8461034074    1.00000    0.0
 O1        -6.1890903289  -2.3613377120  10.2570695130   -8.21083    0.0
 H2        -7.7746015839  -2.0478707314  11.0115738292   -0.55665    0.0
 H3        -6.4911189612  -3.4098307281   8.8461034074   -0.55665    0.0
 B12       -6.9818455132  -2.2046040491  10.6343218253   -0.33793    0.0
 B13       -6.3401042019  -2.8855840475   9.5515866144   -0.33793    0.0
 ZO1       11.0245892007   5.7669365242   7.0892637924    8.00000    0.0
 ZH2       12.4402483791   5.6557202967   6.0099472067    1.00000    0.0
 ZH3       10.1427688184   4.2238396729   6.9388338362    1.00000    0.0
 O1        11.0245892007   5.7669365242   7.0892637924   -8.21083    0.0
 H2        12.4402483791   5.6557202967   6.0099472067   -0.55665    0.0
 H3        10.1427688184   4.2238396729   6.9388338362   -0.55665    0.0
 B12       11.7324186646   5.7113287989   6.5496057883   -0.33793    0.0
 B13       10.5836788842   4.9953884870   7.0140491031   -0.33793    0.0
 ZO1        3.4836752778   8.5462051150   4.5921588557    8.00000    0.0
 ZH2        4.6176583487   9.4366486002   3.5421221681    1.00000    0.0
 ZH3        4.0400382695   8.7886251211   6.2693818620    1.00000    0.0
 O1         3.4836752778   8.5462051150   4.5921588557   -8.21083    0.0
 H2         4.6176583487   9.4366486002   3.5421221681   -0.55665    0.0
 H3         4.0400382695   8.7886251211   6.2693818620   -0.55665    0.0
 B12        4.0506664163   8.9914265916   4.0671403646   -0.33793    0.0
 B13        3.7618563767   8.6674148520   5.4307702115   -0.33793    0.0
 ZO1      -10.7733378578   4.2724085986   6.4610990548    8.00000    0.0
 ZH2      -11.8726079629   5.0870957424   5.3168637886    1.00000    0.0
 ZH3       -9.3328272424   5.3126149322   6.6169329445    1.00000    0.0
 O1       -10.7733378578   4.2724085986   6.4610990548   -8.21083    0.0
 H2       -11.8726079629   5.0870957424   5.3168637886   -0.55665    0.0
 H3        -9.3328272424   5.3126149322   6.6169329445   -0.55665    0.0
 B12      -11.3229729904   4.6797517349   5.8889816538   -0.33793    0.0
 B13      -10.0530826302   4.7925113298   6.5390162318   -0.33793    0.0
 ZO1       -2.9401856961   1.9006095853  10.9818840646    8.00000    0.0
 ZH2       -3.4811727734   2.3615600155  12.6178064142    1.00000    0.0
 ZH3       -3.6792993553   0.3170935763  10.6247114190    1.00000    0.0
 O1        -2.9401856961   1.9006095853  10.9818840646   -8.21083    0.0
 H2        -3.4811727734   2.3615600155  12.6178064142   -0.55665    0.0
 H3        -3.6792993553   0.3170935763  10.6247114190   -0.55665    0.0
 B12       -3.2106789342   2.1310850640  11.7998449391   -0.33793    0.0
 B13       -3.3097422251   1.1088518444  10.8032974415   -0.33793    0.0
 ZO1       -1.5702907805   9.6190257907   5.1247353209    8.00000    0.0
 ZH2       -0.1021483067   8.6295105018   4.9083989620    1.00000    0.0
 ZH3       -1.2069912235  10.8011094229   6.4100663946    1.00000    0.0
 O1        -1.5702907805   9.6190257907   5.1247353209   -8.21083    0.0
 H2        -0.1021483067   8.6295105018   4.9083989620   -0.55665    0.0
 H3        -1.2069912235  10.8011094229   6.4100663946   -0.55665    0.0
 B12       -0.8362199736   9.1242681011   5.0165668904   -0.33793    0.0
 B13       -1.3886414321  10.2100675616   5.7674006067   -0.33793    0.0
 ZO1       15.8902491443   5.5096087022  -4.7785886110    8.00000    0.0
 ZH2       16.4287041909   7.0423298901  -5.5149419051    1.00000    0.0
 ZH3       15.0049536458   4.6163932687  -6.0434215328    1.00000    0.0
 O1        15.8902491443   5.5096087022  -4.7785886110   -8.21083    0.0
 H2        16.4287041909   7.0423298901  -5.5149419051   -0.55665    0.0
 H3        15.0049536458   4.6163932687  -6.0434215328   -0.55665    0.0
 B12       16.1594767491   6.2759691460  -5.1467647881   -0.33793    0.0
 B13       15.4476014765   5.0630008353  -5.4110046020   -0.33793    0.0
 ZO1        5.4397239461  11.9483211145   0.7050923634    8.00000    0.0
 ZH2        5.1628401360  13.5877623672   1.3508105569    1.00000    0.0
 ZH3        6.1767536335  12.1498493063  -0.9066017386    1.00000    0.0
 O1         5.4397239461  11.9483211145   0.7050923634   -8.21083    0.0
 H2         5.1628401360  13.5877623672   1.3508105569   -0.55665    0.0
 H3         6.1767536335  12.1498493063  -0.9066017386   -0.55665    0.0
 B12        5.3012819330  12.7680413086   1.0279516869   -0.33793    0.0
 B13        5.8082386817  12.0490847781  -0.1007544608   -0.33793    0.0
 ZO1      -12.0459243729  -0.8265967880   8.9330462961    8.00000    0.0
 ZH2      -13.7242898149  -1.0957035128   9.4734676727    1.00000    0.0
 ZH3      -12.0143865911   0.7670269369   8.1325757830    1.00000    0.0
 O1       -12.0459243729  -0.8265967880   8.9330462961   -8.21083    0.0
 H2       -13.7242898149  -1.0957035128   9.4734676727   -0.55665    0.0
 H3       -12.0143865911   0.7670269369   8.1325757830   -0.55665    0.0
 B12      -12.8851067072  -0.9611504614   9.2032570455   -0.33793    0.0
 B13      -12.0301550953  -0.0297852366   8.5328111006   -0.33793    0.0
 ZO1      -12.1510597595  -5.9213876009   5.5383147754    8.00000    0.0
 ZH2      -12.5790991827  -4.7338485024   6.7984407185    1.00000    0.0
 ZH3      -12.9256853579  -5.3694640574   4.0294344505    1.00000    0.0
 O1       -12.1510597595  -5.9213876009   5.5383147754   -8.21083    0.0
 H2       -12.5790991827  -4.7338485024   6.7984407185   -0.55665    0.0
 H3       -12.9256853579  -5.3694640574   4.0294344505   -0.55665    0.0
 B12      -12.3650791887  -5.3276184601   6.1683778054   -0.33793    0.0
 B13      -12.5383722763  -5.6454262376   4.7838746714   -0.33793    0.0
 ZO1        0.7732251549  -4.7518353618 -15.8985907290    8.00000    0.0
 ZH2        0.7784755105  -5.9489592888 -14.5763763031    1.00000    0.0
 ZH3        0.2711423893  -5.6195983422 -17.3738142907    1.00000    0.0
 O1         0.7732251549  -4.7518353618 -15.8985907290   -8.21083    0.0
 H2         0.7784755105  -5.9489592888 -14.5763763031   -0.55665    0.0
 H3         0.2711423893  -5.6195983422 -17.3738142907   -0.55665    0.0
 B12        0.7758504494  -5.3503968404 -15.2374834801   -0.33793    0.0
 B13        0.5221838888  -5.1857163671 -16.6362024739   -0.33793    0.0
 ZO1        1.8240302667  -0.9003206088  11.2641782200    8.00000    0.0
 ZH2        0.5886156504   0.3833822164  11.3492783566    1.00000    0.0
 ZH3        3.3522319683  -0.1106393616  10.7925986004    1.00000    0.0
 O1         1.8240302667  -0.9003206088  11.2641782200   -8.21083    0.0
 H2         0.5886156504   0.3833822164  11.3492783566   -0.55665    0.0
 H3         3.3522319683  -0.1106393616  10.7925986004   -0.55665    0.0
 B12        1.2063228898  -0.2584696831  11.3067283791   -0.33793    0.0
 B13        2.5881310488  -0.5054804721  11.0283885010   -0.33793    0.0
 ZO1        0.0660245446  11.6663392723  10.4374416740    8.00000    0.0
 ZH2        1.0853333863  12.8947866062  11.2332499951    1.00000    0.0
 ZH3        0.8194363021  10.0835226612  10.7667539120    1.00000    0.0
 O1         0.0660245446  11.6663392723  10.4374416740   -8.21083    0.0
 H2         1.0853333863  12.8947866062  11.2332499951   -0.55665    0.0
 H3         0.8194363021  10.0835226612  10.7667539120   -0.55665    0.0
 B12        0.5756785492  12.2805630225  10.8353455704   -0.33793    0.0
 B13        0.4427300071  10.8749310500  10.6020975288   -0.33793    0.0
 ZO1       -1.5927327527  -5.8020239322  10.8260946449    8.00000    0.0
 ZH2       -0.4269622597  -4.4621209189  10.9904823672    1.00000    0.0
 ZH3       -3.1993019329  -5.1350351365  11.2203606288    1.00000    0.0
 O1        -1.5927327527  -5.8020239322  10.8260946449   -8.21083    0.0
 H2        -0.4269622597  -4.4621209189  10.9904823672   -0.55665    0.0
 H3        -3.1993019329  -5.1350351365  11.2203606288   -0.55665    0.0
 B12       -1.0098474027  -5.1320728968  10.9082883749   -0.33793    0.0
 B13       -2.3960172393  -5.4685300056  11.0232275057   -0.33793    0.0
 ZO1        6.4807114249   8.1070324664   9.4328625349    8.00000    0.0
 ZH2        7.8514333980   6.9915630238   9.1915464648    1.00000    0.0
 ZH3        7.0903944805   9.4626805802  10.4187068501    1.00000    0.0
 O1         6.4807114249   8.1070324664   9.4328625349   -8.21083    0.0
 H2         7.8514333980   6.9915630238   9.1915464648   -0.55665    0.0
 H3         7.0903944805   9.4626805802  10.4187068501   -0.55665    0.0
 B12        7.1660719464   7.5492976887   9.3122043250   -0.33793    0.0
 B13        6.7855524877   8.7848564669   9.9257845177   -0.33793    0.0
 ZO1        6.7407277294   1.8767623907  12.1485188769    8.00000    0.0
 ZH2        8.2318034783   1.3456189011  11.3263486056    1.00000    0.0
 ZH3        7.1261613329   1.9903419264  13.8863119823    1.00000    0.0
 O1         6.7407277294   1.8767623907  12.1485188769   -8.21083    0.0
 H2         8.2318034783   1.3456189011  11.3263486056   -0.55665    0.0
 H3         7.1261613329   1.9903419264  13.8863119823   -0.55665    0.0
 B12        7.4862651632   1.6111907440  11.7374335262   -0.33793    0.0
 B13        6.9334440905   1.9335522566  13.0174152146   -0.33793    0.0

   CHARGE SCREENING PARAMETERS (COEF AND ZETA)
   ICHGP=   3 AI-FRAGMENT SCREENING= 1   FRAGMENT-FRAGMENT SCREENING= 1

             GAUSSIAN DAMPING    EXPONENTIAL DAMPING
 ZO1        3.17107   0.30798      3.17107   0.30798
 ZH2       -0.74355   0.22035     -0.74355   0.22035
 ZH3       -0.74355   0.22035     -0.74355   0.22035
 O1         3.06389   0.30817      3.06389   0.30817
 H2        -1.50149   0.23358     -1.50149   0.23358
 H3        -1.50149   0.23358     -1.50149   0.23358
 B12        1.99014   0.44003      1.99014   0.44003
 B13        1.99014   0.44003      1.99014   0.44003
 ZO1        3.17107   0.30798      3.17107   0.30798
 ZH2       -0.74355   0.22035     -0.74355   0.22035
 ZH3       -0.74355   0.22035     -0.74355   0.22035
 O1         3.06389   0.30817      3.06389   0.30817
 H2        -1.50149   0.23358     -1.50149   0.23358
 H3        -1.50149   0.23358     -1.50149   0.23358
 B12        1.99014   0.44003      1.99014   0.44003
 B13        1.99014   0.44003      1.99014   0.44003
 ZO1        3.17107   0.30798      3.17107   0.30798
 ZH2       -0.74355   0.22035     -0.74355   0.22035
 ZH3       -0.74355   0.22035     -0.74355   0.22035
 O1         3.06389   0.30817      3.06389   0.30817
 H2        -1.50149   0.23358     -1.50149   0.23358
 H3        -1.50149   0.23358     -1.50149   0.23358
 B12        1.99014   0.44003      1.99014   0.44003
 B13        1.99014   0.44003      1.99014   0.44003
 ZO1        3.17107   0.30798      3.17107   0.30798
 ZH2       -0.74355   0.22035     -0.74355   0.22035
 ZH3       -0.74355   0.22035     -0.74355   0.22035
 O1         3.06389   0.30817      3.06389   0.30817
 H2        -1.50149   0.23358     -1.50149   0.23358
 H3        -1.50149   0.23358     -1.50149   0.23358
 B12        1.99014   0.44003      1.99014   0.44003
 B13        1.99014   0.44003      1.99014   0.44003
 ZO1        3.17107   0.30798      3.17107   0.30798
 ZH2       -0.74355   0.22035     -0.74355   0.22035
 ZH3       -0.74355   0.22035     -0.74355   0.22035
 O1         3.06389   0.30817      3.06389   0.30817
 H2        -1.50149   0.23358     -1.50149   0.23358
 H3        -1.50149   0.23358     -1.50149   0.23358
 B12        1.99014   0.44003      1.99014   0.44003
 B13        1.99014   0.44003      1.99014   0.44003
 ZO1        3.17107   0.30798      3.17107   0.30798
 ZH2       -0.74355   0.22035     -0.74355   0.22035
 ZH3       -0.74355   0.22035     -0.74355   0.22035
 O1         3.06389   0.30817      3.06389   0.30817
 H2        -1.50149   0.23358     -1.50149   0.23358
 H3        -1.50149   0.23358     -1.50149   0.23358
 B12        1.99014   0.44003      1.99014   0.44003
 B13        1.99014   0.44003      1.99014   0.44003
 ZO1        3.17107   0.30798      3.17107   0.30798
 ZH2       -0.74355   0.22035     -0.74355   0.22035
 ZH3       -0.74355   0.22035     -0.74355   0.22035
 O1         3.06389   0.30817      3.06389   0.30817
 H2        -1.50149   0.23358     -1.50149   0.23358
 H3        -1.50149   0.23358     -1.50149   0.23358
 B12        1.99014   0.44003      1.99014   0.44003
 B13        1.99014   0.44003      1.99014   0.44003
 ZO1        3.17107   0.30798      3.17107   0.30798
 ZH2       -0.74355   0.22035     -0.74355   0.22035
 ZH3       -0.74355   0.22035     -0.74355   0.22035
 O1         3.06389   0.30817      3.06389   0.30817
 H2        -1.50149   0.23358     -1.50149   0.23358
 H3        -1.50149   0.23358     -1.50149   0.23358
 B12        1.99014   0.44003      1.99014   0.44003
 B13        1.99014   0.44003      1.99014   0.44003
 ZO1        3.17107   0.30798      3.17107   0.30798
 ZH2       -0.74355   0.22035     -0.74355   0.22035
 ZH3       -0.74355   0.22035     -0.74355   0.22035
 O1         3.06389   0.30817      3.06389   0.30817
 H2        -1.50149   0.23358     -1.50149   0.23358
 H3        -1.50149   0.23358     -1.50149   0.23358
 B12        1.99014   0.44003      1.99014   0.44003
 B13        1.99014   0.44003      1.99014   0.44003
 ZO1        3.17107   0.30798      3.17107   0.30798
 ZH2       -0.74355   0.22035     -0.74355   0.22035
 ZH3       -0.74355   0.22035     -0.74355   0.22035
 O1         3.06389   0.30817      3.06389   0.30817
 H2        -1.50149   0.23358     -1.50149   0.23358
 H3        -1.50149   0.23358     -1.50149   0.23358
 B12        1.99014   0.44003      1.99014   0.44003
 B13        1.99014   0.44003      1.99014   0.44003
 ZO1        3.17107   0.30798      3.17107   0.30798
 ZH2       -0.74355   0.22035     -0.74355   0.22035
 ZH3       -0.74355   0.22035     -0.74355   0.22035
 O1         3.06389   0.30817      3.06389   0.30817
 H2        -1.50149   0.23358     -1.50149   0.23358
 H3        -1.50149   0.23358     -1.50149   0.23358
 B12        1.99014   0.44003      1.99014   0.44003
 B13        1.99014   0.44003      1.99014   0.44003
 ZO1        3.17107   0.30798      3.17107   0.30798
 ZH2       -0.74355   0.22035     -0.74355   0.22035
 ZH3       -0.74355   0.22035     -0.74355   0.22035
 O1         3.06389   0.30817      3.06389   0.30817
 H2        -1.50149   0.23358     -1.50149   0.23358
 H3        -1.50149   0.23358     -1.50149   0.23358
 B12        1.99014   0.44003      1.99014   0.44003
 B13        1.99014   0.44003      1.99014   0.44003
 ZO1        3.17107   0.30798      3.17107   0.30798
 ZH2       -0.74355   0.22035     -0.74355   0.22035
 ZH3       -0.74355   0.22035     -0.74355   0.22035
 O1         3.06389   0.30817      3.06389   0.30817
 H2        -1.50149   0.23358     -1.50149   0.23358
 H3        -1.50149   0.23358     -1.50149   0.23358
 B12        1.99014   0.44003      1.99014   0.44003
 B13        1.99014   0.44003      1.99014   0.44003
 ZO1        3.17107   0.30798      3.17107   0.30798
 ZH2       -0.74355   0.22035     -0.74355   0.22035
 ZH3       -0.74355   0.22035     -0.74355   0.22035
 O1         3.06389   0.30817      3.06389   0.30817
 H2        -1.50149   0.23358     -1.50149   0.23358
 H3        -1.50149   0.23358     -1.50149   0.23358
 B12        1.99014   0.44003      1.99014   0.44003
 B13        1.99014   0.44003      1.99014   0.44003
 ZO1        3.17107   0.30798      3.17107   0.30798
 ZH2       -0.74355   0.22035     -0.74355   0.22035
 ZH3       -0.74355   0.22035     -0.74355   0.22035
 O1         3.06389   0.30817      3.06389   0.30817
 H2        -1.50149   0.23358     -1.50149   0.23358
 H3        -1.50149   0.23358     -1.50149   0.23358
 B12        1.99014   0.44003      1.99014   0.44003
 B13        1.99014   0.44003      1.99014   0.44003
 ZO1        3.17107   0.30798      3.17107   0.30798
 ZH2       -0.74355   0.22035     -0.74355   0.22035
 ZH3       -0.74355   0.22035     -0.74355   0.22035
 O1         3.06389   0.30817      3.06389   0.30817
 H2        -1.50149   0.23358     -1.50149   0.23358
 H3        -1.50149   0.23358     -1.50149   0.23358
 B12        1.99014   0.44003      1.99014   0.44003
 B13        1.99014   0.44003      1.99014   0.44003
 ZO1        3.17107   0.30798      3.17107   0.30798
 ZH2       -0.74355   0.22035     -0.74355   0.22035
 ZH3       -0.74355   0.22035     -0.74355   0.22035
 O1         3.06389   0.30817      3.06389   0.30817
 H2        -1.50149   0.23358     -1.50149   0.23358
 H3        -1.50149   0.23358     -1.50149   0.23358
 B12        1.99014   0.44003      1.99014   0.44003
 B13        1.99014   0.44003      1.99014   0.44003
 ZO1        3.17107   0.30798      3.17107   0.30798
 ZH2       -0.74355   0.22035     -0.74355   0.22035
 ZH3       -0.74355   0.22035     -0.74355   0.22035
 O1         3.06389   0.30817      3.06389   0.30817
 H2        -1.50149   0.23358     -1.50149   0.23358
 H3        -1.50149   0.23358     -1.50149   0.23358
 B12        1.99014   0.44003      1.99014   0.44003
 B13        1.99014   0.44003      1.99014   0.44003
 ZO1        3.17107   0.30798      3.17107   0.30798
 ZH2       -0.74355   0.22035     -0.74355   0.22035
 ZH3       -0.74355   0.22035     -0.74355   0.22035
 O1         3.06389   0.30817      3.06389   0.30817
 H2        -1.50149   0.23358     -1.50149   0.23358
 H3        -1.50149   0.23358     -1.50149   0.23358
 B12        1.99014   0.44003      1.99014   0.44003
 B13        1.99014   0.44003      1.99014   0.44003
 ZO1        3.17107   0.30798      3.17107   0.30798
 ZH2       -0.74355   0.22035     -0.74355   0.22035
 ZH3       -0.74355   0.22035     -0.74355   0.22035
 O1         3.06389   0.30817      3.06389   0.30817
 H2        -1.50149   0.23358     -1.50149   0.23358
 H3        -1.50149   0.23358     -1.50149   0.23358
 B12        1.99014   0.44003      1.99014   0.44003
 B13        1.99014   0.44003      1.99014   0.44003
 ZO1        3.17107   0.30798      3.17107   0.30798
 ZH2       -0.74355   0.22035     -0.74355   0.22035
 ZH3       -0.74355   0.22035     -0.74355   0.22035
 O1         3.06389   0.30817      3.06389   0.30817
 H2        -1.50149   0.23358     -1.50149   0.23358
 H3        -1.50149   0.23358     -1.50149   0.23358
 B12        1.99014   0.44003      1.99014   0.44003
 B13        1.99014   0.44003      1.99014   0.44003
 ZO1        3.17107   0.30798      3.17107   0.30798
 ZH2       -0.74355   0.22035     -0.74355   0.22035
 ZH3       -0.74355   0.22035     -0.74355   0.22035
 O1         3.06389   0.30817      3.06389   0.30817
 H2        -1.50149   0.23358     -1.50149   0.23358
 H3        -1.50149   0.23358     -1.50149   0.23358
 B12        1.99014   0.44003      1.99014   0.44003
 B13        1.99014   0.44003      1.99014   0.44003
 ZO1        3.17107   0.30798      3.17107   0.30798
 ZH2       -0.74355   0.22035     -0.74355   0.22035
 ZH3       -0.74355   0.22035     -0.74355   0.22035
 O1         3.06389   0.30817      3.06389   0.30817
 H2        -1.50149   0.23358     -1.50149   0.23358
 H3        -1.50149   0.23358     -1.50149   0.23358
 B12        1.99014   0.44003      1.99014   0.44003
 B13        1.99014   0.44003      1.99014   0.44003
 ZO1        3.17107   0.30798      3.17107   0.30798
 ZH2       -0.74355   0.22035     -0.74355   0.22035
 ZH3       -0.74355   0.22035     -0.74355   0.22035
 O1         3.06389   0.30817      3.06389   0.30817
 H2        -1.50149   0.23358     -1.50149   0.23358
 H3        -1.50149   0.23358     -1.50149   0.23358
 B12        1.99014   0.44003      1.99014   0.44003
 B13        1.99014   0.44003      1.99014   0.44003
 ZO1        3.17107   0.30798      3.17107   0.30798
 ZH2       -0.74355   0.22035     -0.74355   0.22035
 ZH3       -0.74355   0.22035     -0.74355   0.22035
 O1         3.06389   0.30817      3.06389   0.30817
 H2        -1.50149   0.23358     -1.50149   0.23358
 H3        -1.50149   0.23358     -1.50149   0.23358
 B12        1.99014   0.44003      1.99014   0.44003
 B13        1.99014   0.44003      1.99014   0.44003
 ZO1        3.17107   0.30798      3.17107   0.30798
 ZH2       -0.74355   0.22035     -0.74355   0.22035
 ZH3       -0.74355   0.22035     -0.74355   0.22035
 O1         3.06389   0.30817      3.06389   0.30817
 H2        -1.50149   0.23358     -1.50149   0.23358
 H3        -1.50149   0.23358     -1.50149   0.23358
 B12        1.99014   0.44003      1.99014   0.44003
 B13        1.99014   0.44003      1.99014   0.44003
 ZO1        3.17107   0.30798      3.17107   0.30798
 ZH2       -0.74355   0.22035     -0.74355   0.22035
 ZH3       -0.74355   0.22035     -0.74355   0.22035
 O1         3.06389   0.30817      3.06389   0.30817
 H2        -1.50149   0.23358     -1.50149   0.23358
 H3        -1.50149   0.23358     -1.50149   0.23358
 B12        1.99014   0.44003      1.99014   0.44003
 B13        1.99014   0.44003      1.99014   0.44003
 ZO1        3.17107   0.30798      3.17107   0.30798
 ZH2       -0.74355   0.22035     -0.74355   0.22035
 ZH3       -0.74355   0.22035     -0.74355   0.22035
 O1         3.06389   0.30817      3.06389   0.30817
 H2        -1.50149   0.23358     -1.50149   0.23358
 H3        -1.50149   0.23358     -1.50149   0.23358
 B12        1.99014   0.44003      1.99014   0.44003
 B13        1.99014   0.44003      1.99014   0.44003
 ZO1        3.17107   0.30798      3.17107   0.30798
 ZH2       -0.74355   0.22035     -0.74355   0.22035
 ZH3       -0.74355   0.22035     -0.74355   0.22035
 O1         3.06389   0.30817      3.06389   0.30817
 H2        -1.50149   0.23358     -1.50149   0.23358
 H3        -1.50149   0.23358     -1.50149   0.23358
 B12        1.99014   0.44003      1.99014   0.44003
 B13        1.99014   0.44003      1.99014   0.44003
 ZO1        3.17107   0.30798      3.17107   0.30798
 ZH2       -0.74355   0.22035     -0.74355   0.22035
 ZH3       -0.74355   0.22035     -0.74355   0.22035
 O1         3.06389   0.30817      3.06389   0.30817
 H2        -1.50149   0.23358     -1.50149   0.23358
 H3        -1.50149   0.23358     -1.50149   0.23358
 B12        1.99014   0.44003      1.99014   0.44003
 B13        1.99014   0.44003      1.99014   0.44003
 ZO1        3.17107   0.30798      3.17107   0.30798
 ZH2       -0.74355   0.22035     -0.74355   0.22035
 ZH3       -0.74355   0.22035     -0.74355   0.22035
 O1         3.06389   0.30817      3.06389   0.30817
 H2        -1.50149   0.23358     -1.50149   0.23358
 H3        -1.50149   0.23358     -1.50149   0.23358
 B12        1.99014   0.44003      1.99014   0.44003
 B13        1.99014   0.44003      1.99014   0.44003
 ZO1        3.17107   0.30798      3.17107   0.30798
 ZH2       -0.74355   0.22035     -0.74355   0.22035
 ZH3       -0.74355   0.22035     -0.74355   0.22035
 O1         3.06389   0.30817      3.06389   0.30817
 H2        -1.50149   0.23358     -1.50149   0.23358
 H3        -1.50149   0.23358     -1.50149   0.23358
 B12        1.99014   0.44003      1.99014   0.44003
 B13        1.99014   0.44003      1.99014   0.44003
 ZO1        3.17107   0.30798      3.17107   0.30798
 ZH2       -0.74355   0.22035     -0.74355   0.22035
 ZH3       -0.74355   0.22035     -0.74355   0.22035
 O1         3.06389   0.30817      3.06389   0.30817
 H2        -1.50149   0.23358     -1.50149   0.23358
 H3        -1.50149   0.23358     -1.50149   0.23358
 B12        1.99014   0.44003      1.99014   0.44003
 B13        1.99014   0.44003      1.99014   0.44003
 ZO1        3.17107   0.30798      3.17107   0.30798
 ZH2       -0.74355   0.22035     -0.74355   0.22035
 ZH3       -0.74355   0.22035     -0.74355   0.22035
 O1         3.06389   0.30817      3.06389   0.30817
 H2        -1.50149   0.23358     -1.50149   0.23358
 H3        -1.50149   0.23358     -1.50149   0.23358
 B12        1.99014   0.44003      1.99014   0.44003
 B13        1.99014   0.44003      1.99014   0.44003
 ZO1        3.17107   0.30798      3.17107   0.30798
 ZH2       -0.74355   0.22035     -0.74355   0.22035
 ZH3       -0.74355   0.22035     -0.74355   0.22035
 O1         3.06389   0.30817      3.06389   0.30817
 H2        -1.50149   0.23358     -1.50149   0.23358
 H3        -1.50149   0.23358     -1.50149   0.23358
 B12        1.99014   0.44003      1.99014   0.44003
 B13        1.99014   0.44003      1.99014   0.44003
 ZO1        3.17107   0.30798      3.17107   0.30798
 ZH2       -0.74355   0.22035     -0.74355   0.22035
 ZH3       -0.74355   0.22035     -0.74355   0.22035
 O1         3.06389   0.30817      3.06389   0.30817
 H2        -1.50149   0.23358     -1.50149   0.23358
 H3        -1.50149   0.23358     -1.50149   0.23358
 B12        1.99014   0.44003      1.99014   0.44003
 B13        1.99014   0.44003      1.99014   0.44003
 ZO1        3.17107   0.30798      3.17107   0.30798
 ZH2       -0.74355   0.22035     -0.74355   0.22035
 ZH3       -0.74355   0.22035     -0.74355   0.22035
 O1         3.06389   0.30817      3.06389   0.30817
 H2        -1.50149   0.23358     -1.50149   0.23358
 H3        -1.50149   0.23358     -1.50149   0.23358
 B12        1.99014   0.44003      1.99014   0.44003
 B13        1.99014   0.44003      1.99014   0.44003
 ZO1        3.17107   0.30798      3.17107   0.30798
 ZH2       -0.74355   0.22035     -0.74355   0.22035
 ZH3       -0.74355   0.22035     -0.74355   0.22035
 O1         3.06389   0.30817      3.06389   0.30817
 H2        -1.50149   0.23358     -1.50149   0.23358
 H3        -1.50149   0.23358     -1.50149   0.23358
 B12        1.99014   0.44003      1.99014   0.44003
 B13        1.99014   0.44003      1.99014   0.44003
 ZO1        3.17107   0.30798      3.17107   0.30798
 ZH2       -0.74355   0.22035     -0.74355   0.22035
 ZH3       -0.74355   0.22035     -0.74355   0.22035
 O1         3.06389   0.30817      3.06389   0.30817
 H2        -1.50149   0.23358     -1.50149   0.23358
 H3        -1.50149   0.23358     -1.50149   0.23358
 B12        1.99014   0.44003      1.99014   0.44003
 B13        1.99014   0.44003      1.99014   0.44003
 ZO1        3.17107   0.30798      3.17107   0.30798
 ZH2       -0.74355   0.22035     -0.74355   0.22035
 ZH3       -0.74355   0.22035     -0.74355   0.22035
 O1         3.06389   0.30817      3.06389   0.30817
 H2        -1.50149   0.23358     -1.50149   0.23358
 H3        -1.50149   0.23358     -1.50149   0.23358
 B12        1.99014   0.44003      1.99014   0.44003
 B13        1.99014   0.44003      1.99014   0.44003
 ZO1        3.17107   0.30798      3.17107   0.30798
 ZH2       -0.74355   0.22035     -0.74355   0.22035
 ZH3       -0.74355   0.22035     -0.74355   0.22035
 O1         3.06389   0.30817      3.06389   0.30817
 H2        -1.50149   0.23358     -1.50149   0.23358
 H3        -1.50149   0.23358     -1.50149   0.23358
 B12        1.99014   0.44003      1.99014   0.44003
 B13        1.99014   0.44003      1.99014   0.44003
 ZO1        3.17107   0.30798      3.17107   0.30798
 ZH2       -0.74355   0.22035     -0.74355   0.22035
 ZH3       -0.74355   0.22035     -0.74355   0.22035
 O1         3.06389   0.30817      3.06389   0.30817
 H2        -1.50149   0.23358     -1.50149   0.23358
 H3        -1.50149   0.23358     -1.50149   0.23358
 B12        1.99014   0.44003      1.99014   0.44003
 B13        1.99014   0.44003      1.99014   0.44003
 ZO1        3.17107   0.30798      3.17107   0.30798
 ZH2       -0.74355   0.22035     -0.74355   0.22035
 ZH3       -0.74355   0.22035     -0.74355   0.22035
 O1         3.06389   0.30817      3.06389   0.30817
 H2        -1.50149   0.23358     -1.50149   0.23358
 H3        -1.50149   0.23358     -1.50149   0.23358
 B12        1.99014   0.44003      1.99014   0.44003
 B13        1.99014   0.44003      1.99014   0.44003
 ZO1        3.17107   0.30798      3.17107   0.30798
 ZH2       -0.74355   0.22035     -0.74355   0.22035
 ZH3       -0.74355   0.22035     -0.74355   0.22035
 O1         3.06389   0.30817      3.06389   0.30817
 H2        -1.50149   0.23358     -1.50149   0.23358
 H3        -1.50149   0.23358     -1.50149   0.23358
 B12        1.99014   0.44003      1.99014   0.44003
 B13        1.99014   0.44003      1.99014   0.44003
 ZO1        3.17107   0.30798      3.17107   0.30798
 ZH2       -0.74355   0.22035     -0.74355   0.22035
 ZH3       -0.74355   0.22035     -0.74355   0.22035
 O1         3.06389   0.30817      3.06389   0.30817
 H2        -1.50149   0.23358     -1.50149   0.23358
 H3        -1.50149   0.23358     -1.50149   0.23358
 B12        1.99014   0.44003      1.99014   0.44003
 B13        1.99014   0.44003      1.99014   0.44003
 ZO1        3.17107   0.30798      3.17107   0.30798
 ZH2       -0.74355   0.22035     -0.74355   0.22035
 ZH3       -0.74355   0.22035     -0.74355   0.22035
 O1         3.06389   0.30817      3.06389   0.30817
 H2        -1.50149   0.23358     -1.50149   0.23358
 H3        -1.50149   0.23358     -1.50149   0.23358
 B12        1.99014   0.44003      1.99014   0.44003
 B13        1.99014   0.44003      1.99014   0.44003
 ZO1        3.17107   0.30798      3.17107   0.30798
 ZH2       -0.74355   0.22035     -0.74355   0.22035
 ZH3       -0.74355   0.22035     -0.74355   0.22035
 O1         3.06389   0.30817      3.06389   0.30817
 H2        -1.50149   0.23358     -1.50149   0.23358
 H3        -1.50149   0.23358     -1.50149   0.23358
 B12        1.99014   0.44003      1.99014   0.44003
 B13        1.99014   0.44003      1.99014   0.44003
 ZO1        3.17107   0.30798      3.17107   0.30798
 ZH2       -0.74355   0.22035     -0.74355   0.22035
 ZH3       -0.74355   0.22035     -0.74355   0.22035
 O1         3.06389   0.30817      3.06389   0.30817
 H2        -1.50149   0.23358     -1.50149   0.23358
 H3        -1.50149   0.23358     -1.50149   0.23358
 B12        1.99014   0.44003      1.99014   0.44003
 B13        1.99014   0.44003      1.99014   0.44003
 ZO1        3.17107   0.30798      3.17107   0.30798
 ZH2       -0.74355   0.22035     -0.74355   0.22035
 ZH3       -0.74355   0.22035     -0.74355   0.22035
 O1         3.06389   0.30817      3.06389   0.30817
 H2        -1.50149   0.23358     -1.50149   0.23358
 H3        -1.50149   0.23358     -1.50149   0.23358
 B12        1.99014   0.44003      1.99014   0.44003
 B13        1.99014   0.44003      1.99014   0.44003
 ZO1        3.17107   0.30798      3.17107   0.30798
 ZH2       -0.74355   0.22035     -0.74355   0.22035
 ZH3       -0.74355   0.22035     -0.74355   0.22035
 O1         3.06389   0.30817      3.06389   0.30817
 H2        -1.50149   0.23358     -1.50149   0.23358
 H3        -1.50149   0.23358     -1.50149   0.23358
 B12        1.99014   0.44003      1.99014   0.44003
 B13        1.99014   0.44003      1.99014   0.44003

   SCREENING FOR POLARIZATION WITH EXPONENTIAL FORMULA  OFF

   SCREENING FOR POLARIZATION WITH TANG-TOENNIS FORMULA  OFF

                  DIPOLE MOMENTS AND THE SECOND MOMENT TENSOR

                  X        Y        Z           XX/XY    YY/XZ    ZZ/YZ
 O1            0.38566  0.09540  0.17848     -3.97113 -4.39157 -3.86530
                                             -0.07630 -0.17897  0.33525
 H2            0.04845 -0.01466 -0.03179     -0.26664 -0.28399 -0.28113
                                             -0.00160 -0.00399  0.00172
 H3           -0.00123  0.02634  0.05365     -0.27992 -0.28128 -0.27057
                                              0.00223  0.00435  0.00708
 B12          -0.16177  0.03231  0.07231     -0.12212 -0.15281 -0.14009
                                             -0.00477 -0.01110  0.00788
 B13          -0.02690 -0.07898 -0.15962     -0.14302 -0.14854 -0.12346
                                              0.00127  0.00203  0.01632
 O1            0.12659 -0.41092 -0.06929     -3.84230 -4.09772 -4.28798
                                              0.00504  0.39128  0.15682
 H2            0.05263 -0.01599  0.02339     -0.27217 -0.27669 -0.28291
                                             -0.00762  0.00434 -0.00143
 H3           -0.03713 -0.03433 -0.03187     -0.28004 -0.27147 -0.28026
                                              0.00436  0.00407  0.00688
 B12          -0.15280  0.07563 -0.05806     -0.12517 -0.14060 -0.14926
                                             -0.01054  0.01363 -0.00037
 B13           0.09088  0.12540  0.09196     -0.13756 -0.13238 -0.14508
                                              0.00832  0.01320  0.01271
 O1           -0.36873 -0.21291  0.09161     -4.16617 -4.43707 -3.62475
                                              0.20994  0.11219 -0.00150
 H2           -0.03395 -0.01580 -0.04659     -0.27303 -0.28157 -0.27716
                                              0.00615  0.00650  0.00311
 H3           -0.01120 -0.01028  0.05781     -0.27884 -0.28239 -0.27054
                                              0.00376 -0.00611 -0.00441
 B12           0.12108  0.05957  0.11930     -0.13511 -0.15072 -0.12919
                                              0.01113  0.01301  0.00539
 B13           0.05931  0.04458 -0.16412     -0.14426 -0.15201 -0.11876
                                              0.00738 -0.00686 -0.00646
 O1           -0.32004  0.19199  0.22449     -3.99422 -4.46014 -3.77363
                                             -0.17335  0.26032  0.08410
 H2           -0.04961  0.01348 -0.03051     -0.26839 -0.28229 -0.28108
                                             -0.00617  0.00323 -0.00045
 H3            0.01041  0.01003  0.05800     -0.28170 -0.28275 -0.26732
                                             -0.00180 -0.00191  0.00517
 B12           0.15975 -0.05164  0.06522     -0.12404 -0.15202 -0.13896
                                             -0.01100  0.01135 -0.00043
 B13          -0.00318 -0.04229 -0.17505     -0.14500 -0.15274 -0.11728
                                             -0.00412  0.00324  0.00842
 O1            0.02314  0.13327  0.41399     -4.21443 -3.96697 -4.04658
                                              0.43675 -0.13268 -0.05849
 H2            0.03330  0.04850  0.01058     -0.28037 -0.27375 -0.27765
                                              0.00691  0.00324  0.00622
 H3           -0.03047 -0.03218  0.04012     -0.28139 -0.28120 -0.26918
                                              0.00332 -0.00567 -0.00399
 B12          -0.09221 -0.14211 -0.06118     -0.14391 -0.12980 -0.14131
                                              0.01812  0.00263  0.00736
 B13           0.08089  0.07691 -0.14136     -0.14552 -0.14153 -0.12797
                                              0.01247 -0.01140 -0.00871
 O1            0.18797 -0.32318 -0.22340     -3.70830 -4.10335 -4.41633
                                              0.22086 -0.01279  0.23001
 H2            0.05915  0.00383 -0.00777     -0.26773 -0.28152 -0.28251
                                             -0.00323 -0.00481  0.00249
 H3           -0.03613 -0.04341 -0.01959     -0.28014 -0.27094 -0.28068
                                              0.00436  0.00179  0.00747
 B12          -0.17529  0.01493  0.03860     -0.11645 -0.14660 -0.15197
                                              0.00022 -0.00668  0.00588
 B13           0.08333  0.14317  0.07069     -0.13599 -0.12995 -0.14909
                                              0.01217  0.00372  0.01372
 O1            0.30087  0.08366  0.30358     -4.17985 -4.05163 -3.99652
                                              0.32919  0.01535 -0.33209
 H2           -0.00242 -0.03303  0.04976     -0.28191 -0.28101 -0.26885
                                              0.00001  0.00419 -0.00610
 H3            0.03927  0.04327 -0.01259     -0.27322 -0.27659 -0.28196
                                              0.00918  0.00208  0.00012
 B12          -0.01700  0.08310 -0.15889     -0.14813 -0.14236 -0.12453
                                              0.00488  0.00446 -0.01584
 B13          -0.13019 -0.12403  0.01037     -0.13444 -0.13540 -0.14518
                                              0.01930  0.00113 -0.00605
 O1           -0.37021 -0.21342  0.08415     -4.15762 -4.43899 -3.63138
                                              0.19887  0.13130 -0.05371
 H2           -0.01056 -0.01353  0.05726     -0.27890 -0.28193 -0.27093
                                              0.00401 -0.00583 -0.00506
 H3           -0.03478 -0.01260 -0.04695     -0.27269 -0.28206 -0.27701
                                              0.00568  0.00683  0.00267
 B12           0.05768  0.05346 -0.16203     -0.14425 -0.15132 -0.11945
                                              0.00757 -0.00616 -0.00840
 B13           0.12344  0.05094  0.12087     -0.13447 -0.15153 -0.12902
                                              0.01020  0.01377  0.00377
 O1           -0.39602  0.13494  0.12103     -4.07351 -4.50847 -3.64600
                                             -0.13373  0.14684  0.04813
 H2           -0.04001  0.00787 -0.04371     -0.26987 -0.28372 -0.27818
                                             -0.00395  0.00648 -0.00132
 H3           -0.00849  0.00865  0.05853     -0.27851 -0.28364 -0.26961
                                             -0.00258 -0.00622  0.00349
 B12           0.13964 -0.03195  0.10918     -0.12913 -0.15458 -0.13131
                                             -0.00706  0.01394 -0.00171
 B13           0.05410 -0.03406 -0.16839     -0.14275 -0.15446 -0.11781
                                             -0.00490 -0.00607  0.00587
 O1            0.18671 -0.00667 -0.39342     -3.68883 -4.55327 -3.98589
                                             -0.03621  0.18285 -0.00904
 H2            0.05971 -0.00246 -0.00114     -0.26748 -0.28477 -0.27951
                                             -0.00070 -0.00538  0.00021
 H3           -0.03685  0.00164 -0.04704     -0.27997 -0.28479 -0.26700
                                             -0.00021  0.00481 -0.00025
 B12          -0.17674  0.00720  0.03394     -0.11572 -0.15652 -0.14279
                                             -0.00168 -0.00347  0.00011
 B13           0.08540 -0.00394  0.15853     -0.13539 -0.15655 -0.12309
                                             -0.00091  0.01258 -0.00061
 O1            0.06432 -0.37571 -0.21068     -3.75109 -4.19131 -4.28559
                                             -0.12313  0.31780  0.17371
 H2            0.05271 -0.02680  0.00876     -0.27327 -0.27506 -0.28343
                                             -0.00863  0.00013  0.00202
 H3           -0.04483 -0.01921 -0.03456     -0.27761 -0.27704 -0.27711
                                              0.00423  0.00629  0.00710
 B12          -0.14813  0.10221 -0.00726     -0.12506 -0.13888 -0.15109
                                             -0.01502  0.00589  0.00401
 B13           0.11666  0.08160  0.11033     -0.13190 -0.14199 -0.14113
                                              0.00524  0.01558  0.01201
 O1           -0.21586  0.24174  0.29095     -4.17230 -3.78955 -4.26613
                                              0.27099 -0.29896 -0.03430
 H2            0.01492  0.05781  0.00296     -0.28311 -0.26692 -0.28174
                                              0.00056 -0.00152  0.00498
 H3           -0.04136 -0.02820  0.03267     -0.27469 -0.28132 -0.27575
                                              0.00228 -0.00941 -0.00120
 B12          -0.02359 -0.17588 -0.03085     -0.14873 -0.11714 -0.14915
                                              0.00680 -0.00575  0.00541
 B13           0.12919  0.05761 -0.11149     -0.13548 -0.13982 -0.13972
                                              0.00951 -0.01818 -0.00432
 O1           -0.13901  0.39333  0.12511     -4.33455 -4.14423 -3.74921
                                             -0.19359  0.31784  0.00939
 H2           -0.03117  0.03132 -0.04026     -0.27946 -0.27310 -0.27920
                                             -0.00743  0.00441 -0.00451
 H3            0.01414  0.01685  0.05558     -0.28383 -0.27704 -0.27089
                                             -0.00056  0.00176  0.00792
 B12           0.09550 -0.11586  0.09949     -0.14500 -0.13535 -0.13467
                                             -0.01351  0.01273 -0.00824
 B13          -0.02750 -0.07657 -0.16069     -0.15187 -0.14156 -0.12159
                                             -0.00269  0.00856  0.01133
 O1           -0.28439  0.11471  0.30927     -3.88139 -4.21411 -4.13249
                                              0.29626  0.06615  0.32483
 H2            0.02004  0.03738  0.04212     -0.28183 -0.27805 -0.27188
                                              0.00084 -0.00036  0.00905
 H3           -0.05487 -0.02333 -0.00425     -0.26707 -0.28288 -0.28182
                                              0.00385 -0.00382  0.00071
 B12          -0.03212 -0.11046 -0.13859     -0.14275 -0.14059 -0.13168
                                              0.00715  0.00285  0.01877
 B13           0.17125  0.05434 -0.01271     -0.11950 -0.14819 -0.14733
                                              0.01188 -0.00259  0.00562
 O1           -0.30928 -0.17134 -0.25431     -3.83877 -4.34086 -4.04836
                                             -0.12207 -0.20240  0.32904
 H2            0.01872 -0.03093 -0.04760     -0.28155 -0.27897 -0.27125
                                              0.00027  0.00034  0.00889
 H3           -0.05660  0.00995  0.01646     -0.26541 -0.28382 -0.28253
                                              0.00036  0.00011  0.00149
 B12          -0.02658  0.09740  0.14915     -0.14198 -0.14459 -0.12846
                                             -0.00301 -0.00493  0.01837
 B13           0.17789 -0.01358 -0.02474     -0.11657 -0.15223 -0.14623
                                             -0.00287 -0.00529  0.00671
 O1           -0.37235  0.20201  0.10113     -3.99878 -4.23354 -3.99567
                                              0.01940  0.23388  0.39247
 H2            0.00192  0.03791  0.04618     -0.28030 -0.27622 -0.27525
                                             -0.00378 -0.00283  0.00886
 H3           -0.04752 -0.01317 -0.03379     -0.26755 -0.28336 -0.28085
                                             -0.00065  0.00576  0.00148
 B12           0.02398 -0.11875 -0.13328     -0.14383 -0.13875 -0.13244
                                             -0.00365  0.00046  0.02000
 B13           0.15818  0.01992  0.08381     -0.12374 -0.15001 -0.14126
                                              0.00128  0.01398  0.00836
 O1           -0.21912 -0.17807 -0.33161     -4.36189 -3.68193 -4.18416
                                             -0.13787  0.26504 -0.11880
 H2            0.00116 -0.05965 -0.00377     -0.28324 -0.26774 -0.28078
                                              0.00248  0.00247  0.00513
 H3           -0.02800  0.03784 -0.03684     -0.27882 -0.27977 -0.27318
                                             -0.00312  0.00833 -0.00403
 B12           0.01402  0.17588  0.03622     -0.15216 -0.11592 -0.14694
[...]
    3  N  1  X    0.000029   0.000366  -0.001878
    4  N  1  Y   -0.000000  -0.000002   0.000000  -0.001905
    5  N  1  Z   -0.000028  -0.000352   0.000040  -0.000001  -0.001983
    6  H  2  S   -0.000117  -0.000858   0.000340  -0.000277   0.000531
    7  H  3  S   -0.000112  -0.000725  -0.000438  -0.000080  -0.000182
    8  H  4  S   -0.000117  -0.001194   0.000555  -0.000729  -0.000850

                      6          7          8

    6  H  2  S   -0.001461
    7  H  3  S   -0.000285  -0.000849
    8  H  4  S   -0.000500  -0.000438  -0.002935

                      1          2          3          4          5

    1  N  1  S   -0.000050
    2  N  1  S   -0.000012  -0.000050
    3  N  1  X   -0.000000  -0.000002  -0.000050
    4  N  1  Y    0.000036   0.000462   0.000017  -0.000049
    5  N  1  Z   -0.000001  -0.000009  -0.000001   0.000061  -0.000052
    6  H  2  S   -0.000002   0.000063  -0.000012   0.000207  -0.000041
    7  H  3  S   -0.000003   0.000012   0.000010   0.000227   0.000001
    8  H  4  S   -0.000000   0.000198  -0.000055   0.000355   0.000133

                      6          7          8

    6  H  2  S    0.000251
    7  H  3  S    0.000046   0.000111
    8  H  4  S    0.000129   0.000124   0.000970

                      1          2          3          4          5

    1  N  1  S   -0.007052
    2  N  1  S   -0.001657  -0.007052
    3  N  1  X   -0.000028  -0.000352  -0.007012
    4  N  1  Y   -0.000001  -0.000009  -0.000001  -0.006990
    5  N  1  Z   -0.000065  -0.000829  -0.000061  -0.000002  -0.007153
    6  H  2  S   -0.000429  -0.003137   0.000560  -0.001012   0.002130
    7  H  3  S   -0.000423  -0.003753  -0.003423  -0.000414  -0.000654
    8  H  4  S   -0.000424  -0.003751   0.001001  -0.002291  -0.002457

                      6          7          8

    6  H  2  S   -0.005329
    7  H  3  S   -0.001477  -0.007900
    8  H  4  S   -0.001563  -0.001869  -0.007894

 X, Y, AND Z COMPONENTS OF THE INDUCED DIPOLE ONE ELECTRON INTEGRALS

                      1          2          3          4          5

    1  N  1  S   -0.001720
    2  N  1  S   -0.000404  -0.001720
    3  N  1  X    0.000029   0.000376  -0.001680
    4  N  1  Y    0.000002   0.000024  -0.000003  -0.001705
    5  N  1  Z   -0.000025  -0.000314   0.000043   0.000005  -0.001774
    6  H  2  S   -0.000105  -0.000769   0.000323  -0.000238   0.000477
    7  H  3  S   -0.000100  -0.000618  -0.000344  -0.000059  -0.000156
    8  H  4  S   -0.000105  -0.001065   0.000519  -0.000636  -0.000757

                      6          7          8

    6  H  2  S   -0.001315
    7  H  3  S   -0.000244  -0.000635
    8  H  4  S   -0.000447  -0.000374  -0.002604

                      1          2          3          4          5

    1  N  1  S    0.000523
    2  N  1  S    0.000123   0.000523
    3  N  1  X    0.000002   0.000024   0.000520
    4  N  1  Y    0.000035   0.000446   0.000014   0.000510
    5  N  1  Z    0.000007   0.000095   0.000005   0.000058   0.000539
    6  H  2  S    0.000033   0.000298  -0.000055   0.000275  -0.000187
    7  H  3  S    0.000032   0.000315   0.000285   0.000250   0.000072
    8  H  4  S    0.000034   0.000508  -0.000140   0.000531   0.000354

                      6          7          8

    6  H  2  S    0.000618
    7  H  3  S    0.000156   0.000744
    8  H  4  S    0.000248   0.000276   0.001623

                      1          2          3          4          5

    1  N  1  S   -0.006982
    2  N  1  S   -0.001641  -0.006982
    3  N  1  X   -0.000025  -0.000314  -0.006939
    4  N  1  Y    0.000007   0.000095   0.000005  -0.006924
    5  N  1  Z   -0.000064  -0.000821  -0.000054   0.000017  -0.007083
    6  H  2  S   -0.000425  -0.003093   0.000565  -0.000958   0.002100
    7  H  3  S   -0.000419  -0.003684  -0.003343  -0.000355  -0.000640
    8  H  4  S   -0.000419  -0.003672   0.000999  -0.002190  -0.002404

                      6          7          8

    6  H  2  S   -0.005234
    7  H  3  S   -0.001444  -0.007681
    8  H  4  S   -0.001524  -0.001810  -0.007625
          --------------
             REP  MATRIX
          --------------

                      1          2          3          4          5

    1  N  1  S   -0.000488
    2  N  1  S   -0.000114  -0.000470
    3  N  1  X    0.000001   0.000011  -0.000475
    4  N  1  Y   -0.000002  -0.000029  -0.000004  -0.000458
    5  N  1  Z    0.000000   0.000006   0.000003   0.000001  -0.000474
    6  H  2  S   -0.000030  -0.000246   0.000059  -0.000090   0.000197
    7  H  3  S   -0.000029  -0.000226  -0.000194  -0.000041  -0.000008
    8  H  4  S   -0.000029  -0.000232   0.000081  -0.000140  -0.000120

                      6          7          8

    6  H  2  S   -0.000487
    7  H  3  S   -0.000104  -0.000423
    8  H  4  S   -0.000103  -0.000085  -0.000223

 ...... END OF REP INTEGRALS....
 STEP CPU TIME =     0.04 TOTAL CPU TIME =        0.2 (    0.0 MIN)
 TOTAL WALL CLOCK TIME=        0.4 SECONDS, CPU UTILIZATION IS  44.44%
 TIME TO DO FRAGMENT INTEGRALS=      0.14
 ...... END OF ONE-ELECTRON INTEGRALS ......
 STEP CPU TIME =     0.00 TOTAL CPU TIME =        0.2 (    0.0 MIN)
 TOTAL WALL CLOCK TIME=        0.4 SECONDS, CPU UTILIZATION IS  41.03%

          -------------
          GUESS OPTIONS
          -------------
          GUESS =HUCKEL            NORB  =       0          NORDER=       0
          MIX   =       F          PRTMO =       F          PUNMO =       F
          TOLZ  = 1.0E-08          TOLE  = 1.0E-05
          SYMDEN=       F          PURIFY=       F

 INITIAL GUESS ORBITALS GENERATED BY HUCKEL   ROUTINE.
 HUCKEL GUESS REQUIRES      3376 WORDS.

 SYMMETRIES FOR INITIAL GUESS ORBITALS FOLLOW.   BOTH SET(S).
     5 ORBITALS ARE OCCUPIED (    1 CORE ORBITALS).
     2=A        3=A        4=A        5=A        6=A        7=A        8=A   
 ...... END OF INITIAL ORBITAL SELECTION ......
 STEP CPU TIME =     0.00 TOTAL CPU TIME =        0.2 (    0.0 MIN)
 TOTAL WALL CLOCK TIME=        0.4 SECONDS, CPU UTILIZATION IS  41.03%

                    ----------------------
                    AO INTEGRAL TECHNOLOGY
                    ----------------------
     S,P,L SHELL ROTATED AXIS INTEGRALS, REPROGRAMMED BY
        KAZUYA ISHIMURA (IMS) AND JOSE SIERRA (SYNSTAR).
     S,P,D,L SHELL ROTATED AXIS INTEGRALS PROGRAMMED BY
        KAZUYA ISHIMURA (INSTITUTE FOR MOLECULAR SCIENCE).
     S,P,D,F,G SHELL TO TOTAL QUARTET ANGULAR MOMENTUM SUM 5,
        ERIC PROGRAM BY GRAHAM FLETCHER (ELORET AND NASA ADVANCED
        SUPERCOMPUTING DIVISION, AMES RESEARCH CENTER).
     S,P,D,F,G,L SHELL GENERAL RYS QUADRATURE PROGRAMMED BY
        MICHEL DUPUIS (PACIFIC NORTHWEST NATIONAL LABORATORY).

          --------------------
          2 ELECTRON INTEGRALS
          --------------------

 DIRECT SCF METHOD SKIPS INTEGRAL STORAGE ON DISK.
 DIRECT TRANSFORMATION SKIPS AO INTEGRAL STORAGE ON DISK.
  ...... END OF TWO-ELECTRON INTEGRALS .....
 STEP CPU TIME =     0.01 TOTAL CPU TIME =        0.2 (    0.0 MIN)
 TOTAL WALL CLOCK TIME=        0.4 SECONDS, CPU UTILIZATION IS  41.46%

 EFP ADDITIVE CONTRIBUTIONS TO THE "NUCLEAR ENERGY":
   -- NUCLEAR CHARGE - NUCLEAR CHARGE   =       12.1451530544
   -- NUCLEAR CHARGE - EFP CHARGE       =       -0.0472107776
   -- NUCLEAR CHARGE - EFP DIPOLE       =        0.0004481529
   -- NUCLEAR CHARGE - EFP QUADRUPOLE   =       -0.0259032368
   -- NUCLEAR CHARGE - EFP OCTUPOLE     =        0.0000541527
   -- EFP CHARGE     - EFP CHARGE       =       -0.2424953901
   -- EFP CHARGE     - EFP DIPOLE       =       -0.1731081881
   -- EFP CHARGE     - EFP QUADRUPOLE   =       -0.0822688046
   -- EFP CHARGE     - EFP OCTUPOLE     =        0.0002455025
   -- EFP DIPOLE     - EFP DIPOLE       =       -0.0286573513
   -- EFP DIPOLE     - EFP QUADRUPOLE   =       -0.0240448140
   -- EFP QUADRUPOLE - EFP QUADRUPOLE   =       -0.0100470922
   -- EFP-EFP EXCHANGE REPULSION ENERGY =        0.1745350493
   -- EFP-EFP DISPERSION ENERGY (C6)    =        0.0000000000
   -- EFP-EFP DISPERSION ENERGY (C8)    =        0.0000000000
   -- TOTAL INTERFRAGMENT INTERACTION   =       -0.3858410885
 THE TOTAL NUCLEAR CHARGE/EFP ENERGY    =       11.6867002571

          --------------------------
                 RHF SCF CALCULATION
          --------------------------

     NUCLEAR ENERGY =        11.6867002571
     MAXIT =   30     NPUNCH=    2
     EXTRAP=T  DAMP=F  SHIFT=F  RSTRCT=F  DIIS=F  DEM=F  SOSCF=F
     DENSITY MATRIX CONV=  2.00E-05
     MEMORY REQUIRED FOR RHF ITERS=     47376 WORDS.

 DIRECT SCF CALCULATION, SCHWRZ=T   FDIFF=T,  DIRTHR=  0.00E+00 NITDIR=10
 SCHWARZ INEQUALITY OVERHEAD:        36 INTEGRALS, T=        0.00

                                                                                   NONZERO     BLOCKS
 ITER EX DEM     TOTAL ENERGY        E CHANGE  DENSITY CHANGE    DIIS ERROR      INTEGRALS    SKIPPED
   1  0  0      -55.8280856655   -55.8280856655   0.521792648   0.000000000            579          0
   2  1  0      -55.9291405553    -0.1010548898   0.153749877   0.000000000            579          0
   3  2  0      -55.9351011244    -0.0059605691   0.052937078   0.000000000            579          0
   4  3  0      -55.9356781294    -0.0005770050   0.017733907   0.000000000            579          0
   5  0  0      -55.9357498711    -0.0000717417   0.010160226   0.000000000            579          0
   6  1  0      -55.9357620927    -0.0000122216   0.000325601   0.000000000            579          0
   7  2  0      -55.9357622160    -0.0000001233   0.000113161   0.000000000            579          0
   8  3  0      -55.9357622292    -0.0000000131   0.000043607   0.000000000            579          0
   9  4  0      -55.9357622309    -0.0000000018   0.000021105   0.000000000            579          0
  10  5  0      -55.9357622312    -0.0000000003   0.000009411   0.000000000            579          0

          -----------------
          DENSITY CONVERGED
          -----------------
     TIME TO FORM FOCK OPERATORS=       0.3 SECONDS (       0.0 SEC/ITER)
     FOCK TIME ON FIRST ITERATION=       0.0, LAST ITERATION=       0.0
     TIME TO SOLVE SCF EQUATIONS=       0.0 SECONDS (       0.0 SEC/ITER)

 FINAL RHF ENERGY IS      -55.9357622312 AFTER  10 ITERATIONS

          INDUCED DIPOLE     ATOMIC UNITS          DEBYE
                X(IND)            0.21531          0.54727
                Y(IND)           -0.03690         -0.09378
                Z(IND)           -0.13063         -0.33204

          ------------
          EIGENVECTORS
          ------------

                      1          2          3          4          5
                  -15.2995    -1.0991    -0.5746    -0.5608    -0.3598
                     A          A          A          A          A   
    1  N  1  S    0.993325  -0.219298  -0.001239  -0.000084   0.095507
    2  N  1  S    0.032562   0.732780   0.007271   0.002242  -0.481951
    3  N  1  X    0.001655   0.044002   0.478671  -0.296666   0.281038
    4  N  1  Y    0.005290   0.137769  -0.106895   0.197641   0.812390
    5  N  1  Z   -0.001065  -0.028190   0.337879   0.490342  -0.155222
    6  H  2  S   -0.007022   0.160080  -0.410095  -0.269883   0.125956
    7  H  3  S   -0.006826   0.157862   0.444559  -0.221143   0.137583
    8  H  4  S   -0.006812   0.152405  -0.028154   0.492955   0.125564

                      6          7          8
                    0.6782     0.7355     0.7523
                     A          A          A   
    1  N  1  S   -0.180893   0.017928   0.026515
    2  N  1  S    1.264955  -0.124535  -0.196102
    3  N  1  X    0.358003   0.679981   0.667786
    4  N  1  Y    0.529033  -0.425173  -0.172487
    5  N  1  Z   -0.066040  -0.659339   0.797602
    6  H  2  S   -0.621035  -0.268020   1.063889
    7  H  3  S   -0.881934  -0.575524  -0.649827
    8  H  4  S   -0.634419   1.062812  -0.095350
 ...... END OF RHF CALCULATION ......
 STEP CPU TIME =     0.31 TOTAL CPU TIME =        0.5 (    0.0 MIN)
 TOTAL WALL CLOCK TIME=        0.8 SECONDS, CPU UTILIZATION IS  60.00%

     ----------------------------------------------------------------
     PROPERTY VALUES FOR THE RHF   SELF-CONSISTENT FIELD WAVEFUNCTION
     ----------------------------------------------------------------

          -----------------
          ENERGY COMPONENTS
          -----------------

         WAVEFUNCTION NORMALIZATION =       1.0000000000

                ONE ELECTRON ENERGY =     -99.2964862126
                TWO ELECTRON ENERGY =      31.7544088127
           NUCLEAR REPULSION ENERGY =      12.1451530544
          EFFECTIVE FRAGMENT ENERGY =      -0.5388378857
                                      ------------------
                       TOTAL ENERGY =     -55.9357622312

 ELECTRON-ELECTRON POTENTIAL ENERGY =      31.7544088127
  NUCLEUS-ELECTRON POTENTIAL ENERGY =    -154.5423813370
   NUCLEUS-NUCLEUS POTENTIAL ENERGY =      12.1451530544
 ELECTRON-FRAGMENT MULTIPOLE ENERGY =       0.0658223414
 ELECTRON-FRAGMENT REMAINDER ENERGY =      -0.0045452987
        STATIC INTERFRAGMENT ENERGY =      -0.3858410885
            FRAGMENT-NUCLEAR ENERGY =      -0.0726117088
    TOTAL FRAGMENT INDUCTION ENERGY =      -0.0876985230
                                      ------------------
             TOTAL POTENTIAL ENERGY =    -111.1276937475
                                      ------------------
            SOLUTE POTENTIAL ENERGY =    -110.6428194699
              SOLUTE KINETIC ENERGY =      55.1919315163
                 VIRIAL RATIO (V/T) =       2.0046919256
 MEMORY ASSIGNEMENT
 I10, I20, I21, I30, I31, I40, I41, I60 =
****************************************************************
 LAST = ********

          ---------------------------------------
          MULLIKEN AND LOWDIN POPULATION ANALYSES
          ---------------------------------------
 MEMORY ASSIGNMENT
 I10, I30, I40, I50, I60, I70, I41, I51, I61, I71 =
********************************************************************************
 LAST = ********

     ATOMIC MULLIKEN POPULATION IN EACH MOLECULAR ORBITAL

                      1          2          3          4          5

                  2.000000   2.000000   2.000000   2.000000   2.000000

    1             2.002781   1.423104   1.071048   1.090283   1.908780
    2            -0.000968   0.199069   0.426454   0.177980   0.028234
    3            -0.000907   0.192209   0.500375   0.119884   0.033878
    4            -0.000907   0.185617   0.002123   0.611853   0.029109

          ----- MULLIKEN ATOMIC OVERLAP POPULATIONS -----
          (OFF-DIAGONAL ELEMENTS NEED TO BE MULTIPLIED BY 2)

                      1          2          3          4          5

    1  N  1  S    2.087817
    2  N  1  S   -0.081977   1.540721
    3  N  1  X    0.000000   0.000000   0.796116
    4  N  1  Y    0.000000   0.000000   0.000000   1.458949
    5  N  1  Z    0.000000   0.000000   0.000000   0.000000   0.758975
    6  H  2  S   -0.003650   0.053832   0.016831   0.038014   0.236058
    7  H  3  S   -0.003430   0.051888   0.283805   0.004674   0.000984
    8  H  4  S   -0.003365   0.051887   0.037662   0.138090   0.114092

                      6          7          8

    6  H  2  S    0.565108
    7  H  3  S   -0.036264   0.580867
    8  H  4  S   -0.039161  -0.037085   0.565675

               ----- POPULATIONS IN EACH AO -----
                             MULLIKEN      LOWDIN
              1  N  1  S      1.99540     1.99268
              2  N  1  S      1.61635     1.38484
              3  N  1  X      1.13441     1.15997
              4  N  1  Y      1.63973     1.64854
              5  N  1  Z      1.11011     1.13629
              6  H  2  S      0.83077     0.89074
              7  H  3  S      0.84544     0.90041
              8  H  4  S      0.82780     0.88652

          ----- MULLIKEN ATOMIC OVERLAP POPULATIONS -----
          (OFF-DIAGONAL ELEMENTS NEED TO BE MULTIPLIED BY 2)

             1           2           3           4

    1    6.4786234
    2    0.3410847   0.5651084
    3    0.3379218  -0.0362638   0.5808670
    4    0.3383666  -0.0391607  -0.0370854   0.5656751

          TOTAL MULLIKEN AND LOWDIN ATOMIC POPULATIONS
       ATOM         MULL.POP.                    LOW.POP.

          TOTAL MULLIKEN AND LOWDIN ATOMIC POPULATIONS
       ATOM         MULL.POP.    CHARGE          LOW.POP.     CHARGE
    1 N             7.495996                     7.322331
    1 N             7.495996   -0.495996         7.322331   -0.322331
    2 H             0.830769                     0.890736
    2 H             0.830769    0.169231         0.890736    0.109264
    3 H             0.845440                     0.900409
    3 H             0.845440    0.154560         0.900409    0.099591
    4 H             0.827796                     0.886524
    4 H             0.827796    0.172204         0.886524    0.113476

          MULLIKEN SPHERICAL HARMONIC POPULATIONS
       ATOM           S       P       D      F      G      H      I    TOTAL
    1 N             3.61    3.88    0.00   0.00   0.00   0.00   0.00    7.50
    2 H             0.83    0.00    0.00   0.00   0.00   0.00   0.00    0.83
    3 H             0.85    0.00    0.00   0.00   0.00   0.00   0.00    0.85
    4 H             0.83    0.00    0.00   0.00   0.00   0.00   0.00    0.83

          -------------------------------
          BOND ORDER AND VALENCE ANALYSIS     BOND ORDER THRESHOLD=0.050
          -------------------------------

                   BOND                       BOND                       BOND
  ATOM PAIR DIST  ORDER      ATOM PAIR DIST  ORDER      ATOM PAIR DIST  ORDER
    1   2  0.988  0.957        1   3  1.004  0.961        1   4  1.003  0.957

                       TOTAL       BONDED        FREE
      ATOM            VALENCE     VALENCE     VALENCE
    1 N                 2.875       2.875      -0.000
    2 H                 0.971       0.971       0.000
    3 H                 0.976       0.976      -0.000
    4 H                 0.970       0.970       0.000

          ----------------------------
          SOLUTE ELECTROSTATIC MOMENTS
          ----------------------------

 POINT   1           X           Y           Z (BOHR)    CHARGE
                 3.586297    2.453597    0.657808       -0.00 (A.U.)
         DX          DY          DZ         /D/  (DEBYE)
     0.543090    1.856864   -0.323029    1.961438

          ----------------------------------------
          EFFECTIVE FRAGMENT ELECTROSTATIC MOMENTS
          ----------------------------------------

 FRAGMENT DIPOLES HAVE BEEN PUNCHED
 

          ----------------------------
          SYSTEM ELECTROSTATIC MOMENTS
          ----------------------------

 POINT   1           X           Y           Z (BOHR)    CHARGE
                 3.586297    2.453597    0.657808       -0.00 (A.U.)
         DX          DY          DZ         /D/  (DEBYE)
    -9.140102    0.616739   -1.382794    9.264661
 ...... END OF PROPERTY EVALUATION ......
 STEP CPU TIME =     0.00 TOTAL CPU TIME =        0.5 (    0.0 MIN)
 TOTAL WALL CLOCK TIME=        0.8 SECONDS, CPU UTILIZATION IS  59.26%
                580000  WORDS OF DYNAMIC MEMORY USED
 EXECUTION OF GAMESS TERMINATED NORMALLY Mon Oct 13 16:18:14 2014
 DDI: 263624 bytes (0.3 MB / 0 MWords) used by master data server.

 ----------------------------------------
 CPU timing information for all processes
 ========================================
 0: 0.459 + 0.39 = 0.499
 ----------------------------------------
 ddikick.x: exited gracefully.
----- accounting info -----
Files used on the master node archvm were:
-rw-r--r-- 1 ben users   12271 Oct 13 16:18 /scratch/amo_snap.F05
-rw-r--r-- 1 ben users 1799600 Oct 13 16:18 /scratch/amo_snap.F10
-rw-r--r-- 1 ben users  222000 Oct 13 16:18 /scratch/amo_snap.F25
-rw-r--r-- 1 ben users    6361 Oct 13 16:18 /scratch/amo_snap.dat
Mon Oct 13 16:18:17 EDT 2014
0.123u 0.016s 0:04.02 3.2%	0+0k 0+32io 0pf+0w
